chemcompute.org
{'UTCtimestamp': '2023-08-17T06:08:05.438169', 'cluster': 'jetstream2', 'clusterJobNumber': '264530', 'status': 'RUNNING', 'nodeList': 'chemcompute-node-0'}
----- GAMESS execution script 'rungms' -----
This job is running on host chemcompute-node-0.novalocal
under operating system Linux at Thu Aug 17 06:08:09 UTC 2023
SLURM has assigned the following compute nodes to this run:
Available scratch disk space (Kbyte units) at beginning of the job is
Filesystem     1K-blocks     Used Available Use% Mounted on
/dev/sda4       61775852 11491224  50284628  19% /
GAMESS temporary binary files will be written to /scratch/264530
GAMESS supplementary output files will be written to /data/slurm/62/620624
Copying input file 620624.inp to your run's scratch directory...
The generated host list is
chemcompute-node-0.novalocal

 Distributed Data Interface kickoff program.
 Initiating 1 compute processes on 1 nodes to run the following command:
 /data/gamess-2019R1-avx2-ddi/gamess.00.x 620624 

          ******************************************************
          *         GAMESS VERSION = 30 JUN 2019 (R1)          *
          *             FROM IOWA STATE UNIVERSITY             *
          * M.W.SCHMIDT, K.K.BALDRIDGE, J.A.BOATZ, S.T.ELBERT, *
          *   M.S.GORDON, J.H.JENSEN, S.KOSEKI, N.MATSUNAGA,   *
          *          K.A.NGUYEN, S.J.SU, T.L.WINDUS,           *
          *       TOGETHER WITH M.DUPUIS, J.A.MONTGOMERY       *
          *         J.COMPUT.CHEM.  14, 1347-1363(1993)        *
          **************** 64 BIT INTEL VERSION ****************

  SINCE 1993, STUDENTS AND POSTDOCS WORKING AT IOWA STATE UNIVERSITY
  AND ALSO IN THEIR VARIOUS JOBS AFTER LEAVING ISU HAVE MADE IMPORTANT
  CONTRIBUTIONS TO THE CODE:
     IVANA ADAMOVIC, CHRISTINE AIKENS, YURI ALEXEEV, POOJA ARORA,
     ANDREY ASADCHEV, ROB BELL, PRADIPTA BANDYOPADHYAY, JONATHAN BENTZ,
     COLLEEN BERTONI, BRETT BODE, KURT BRORSEN, CALEB CARLIN, GALINA CHABAN,
     WEI CHEN, CHEOL HO CHOI, PAUL DAY, ALBERT DEFUSCO, NUWAN DESILVA,
     TIM DUDLEY, DMITRI FEDOROV, ALEX FINDLATER, GRAHAM FLETCHER, 
     MARK FREITAG, KURT GLAESEMANN, ANASTASIA GUNINA,
     DAN KEMP, GRANT MERRILL, NORIYUKI MINEZAWA, JONATHAN MULLIN,
     TAKESHI NAGATA, SEAN NEDD, HEATHER NETZLOFF, BOSILJKA NJEGIC, RYAN OLSON,
     MIKE PAK, BUU PHAM,
     SPENCER PRUITT, LUKE ROSKOP, JIM SHOEMAKER, LYUDMILA SLIPCHENKO,
     TONY SMITH, SAROM SOK LEANG, JIE SONG, TETSUYA TAKETSUGU, SIMON WEBB,
     PENG XU, SOOHAENG YOO, FEDERICO ZAHARIEV

  ADDITIONAL CODE HAS BEEN PROVIDED BY COLLABORATORS IN OTHER GROUPS:
     IOWA STATE UNIVERSITY:
          JOE IVANIC, AARON WEST, LAIMUTIS BYTAUTAS, KLAUS RUEDENBERG
     UNIVERSITY OF TOKYO: KIMIHIKO HIRAO, TAKAHITO NAKAJIMA,
          TAKAO TSUNEDA, MUNEAKI KAMIYA, SUSUMU YANAGISAWA,
          KIYOSHI YAGI, MAHITO CHIBA, SEIKEN TOKURA, NAOAKI KAWAKAMI
     UNIVERSITY OF AARHUS: FRANK JENSEN
     UNIVERSITY OF IOWA: VISVALDAS KAIRYS, HUI LI
     NATIONAL INST. OF STANDARDS AND TECHNOLOGY: WALT STEVENS, DAVID GARMER
     UNIVERSITY OF PISA: BENEDETTA MENNUCCI, JACOPO TOMASI
     UNIVERSITY OF MEMPHIS: HENRY KURTZ, PRAKASHAN KORAMBATH
     UNIVERSITY OF ALBERTA: TOBY ZENG, MARIUSZ KLOBUKOWSKI
     UNIVERSITY OF NEW ENGLAND: MARK SPACKMAN
     MIE UNIVERSITY: HIROAKI UMEDA
     NAT. INST. OF ADVANCED INDUSTRIAL SCIENCE AND TECHNOLOGY: KAZUO KITAURA
     MICHIGAN STATE UNIVERSITY:
          KAROL KOWALSKI, MARTA WLOCH, JEFFREY GOUR, JESSE LUTZ,
          WEI LI, JUN SHEN, J. EMILIANO DEUSTUA, PIOTR PIECUCH
     UNIVERSITY OF MINNESOTA:
          YINAN SHU
     UNIVERSITY OF SILESIA: MONIKA MUSIAL, STANISLAW KUCHARSKI
     FACULTES UNIVERSITAIRES NOTRE-DAME DE LA PAIX:
          OLIVIER QUINET, BENOIT CHAMPAGNE
     UNIVERSITY OF CALIFORNIA - SANTA BARBARA: BERNARD KIRTMAN
     INSTITUTE FOR MOLECULAR SCIENCE:
          KAZUYA ISHIMURA, MICHIO KATOUDA, AND SHIGERU NAGASE
     UNIVERSITY OF NOTRE DAME: ANNA POMOGAEVA, DAN CHIPMAN
     KYUSHU UNIVERSITY:
          HARUYUKI NAKANO,
          FENG LONG GU, JACEK KORCHOWIEC, MARCIN MAKOWSKI, AND YURIKO AOKI,
          HIROTOSHI MORI AND EISAKU MIYOSHI
     PENNSYLVANIA STATE UNIVERSITY:
          TZVETELIN IORDANOV, CHET SWALINA, JONATHAN SKONE,
          SHARON HAMMES-SCHIFFER
     WASEDA UNIVERSITY:
          MASATO KOBAYASHI, TOMOKO AKAMA, TSUGUKI TOUMA,
          TAKESHI YOSHIKAWA, YASUHIRO IKABATA, JUNJI SEINO,
          YUYA NAKAJIMA, HIROMI NAKAI
     NANJING UNIVERSITY: SHUHUA LI
     UNIVERSITY OF NEBRASKA:
          PEIFENG SU, DEJUN SI, NANDUN THELLAMUREGE, YALI WANG, HUI LI
     UNIVERSITY OF ZURICH: ROBERTO PEVERATI, KIM BALDRIDGE
     N. COPERNICUS UNIVERSITY AND JACKSON STATE UNIVERSITY:
          MARIA BARYSZ
     UNIVERSITY OF COPENHAGEN: Jimmy Kromann, CASPER STEINMANN
     TOKYO INSTITUTE OF TECHNOLOGY: HIROYA NAKATA
     NAGOYA UNIVERSITY: YOSHIO NISHIMOTO, STEPHAN IRLE
     MOSCOW STATE UNIVERSITY: VLADIMIR MIRONOV
     A.N.NESMEYANOV INSTITUTE OF ORGANOELEMENT COMPOUNDS OF RUSSIAN ACADEMY OF SCIENCES:
          IGOR S. GERASIMOV

 EXECUTION OF GAMESS BEGUN Thu Aug 17 06:08:09 2023

            ECHO OF THE FIRST FEW INPUT CARDS -
 INPUT CARD>!                                                                               
 INPUT CARD>!   GAMESS Calculation input file                                               
 INPUT CARD>!                                                                               
 INPUT CARD>!                                                                               
 INPUT CARD> $CONTRL SCFTYP=RHF MAXIT=200 RUNTYP=OPTIMIZE                                   
 INPUT CARD>         COORD=UNIQUE MULT=1 ISPHER=1                                           
 INPUT CARD>         ICHARG=0                                                               
 INPUT CARD>         DFTTYP=B3LYP                                                           
 INPUT CARD>         MOLPLT=.FALSE. PLTORB=.FALSE.  $END                                    
 INPUT CARD> $SYSTEM TIMLIM=2879 MWORDS=250  $END                                           
 INPUT CARD>                                                                                
 INPUT CARD> $FORCE METHOD=SEMINUM NVIB=2 $END                                              
 INPUT CARD> $STATPT OPTTOL=0.0005 NSTEP=999 $END                                           
 INPUT CARD> $STATPT IHREP=0 HSSEND=.TRUE.  $END                                            
 INPUT CARD>                                                                                
 INPUT CARD> $DFT    METHOD=GRID  NLEB=590  $END                                            
 INPUT CARD>                                                                                
 INPUT CARD> $BASIS  GBASIS=CCQ $END                                                        
 INPUT CARD>                                                                                
 INPUT CARD> $SCF    DIRSCF=.T. $END                                                        
 INPUT CARD> $GUESS  GUESS=HUCKEL  $END                                                     
 INPUT CARD>                                                                                
 INPUT CARD> $DATA                                                                          
 INPUT CARD>                                                                                
 INPUT CARD>  Td                                                                            
 INPUT CARD>                                                                                
 INPUT CARD>C     6.0     0.00     0.00     0.00                                            
 INPUT CARD>H     1.0     0.63     0.63     0.63                                            
 INPUT CARD> $END                                                                           
 INPUT CARD>                                                                                
 INPUT CARD>                                                                                
 INPUT CARD>! Customizations after this line are persisted when using Do More Calculations  
  250000000 WORDS OF MEMORY AVAILABLE

     BASIS OPTIONS
     -------------
     GBASIS=CCQ          IGAUSS=       0      POLAR=NONE    
     NDFUNC=       0     NFFUNC=       0     DIFFSP=       F
     NPFUNC=       0      DIFFS=       F     BASNAM=        


     RUN TITLE
     ---------
                                                                                 

 THE POINT GROUP OF THE MOLECULE IS TD      
 THE ORDER OF THE PRINCIPAL AXIS IS     0

 ATOM      ATOMIC                      COORDINATES (BOHR)
           CHARGE         X                   Y                   Z
 C           6.0     0.0000000000        0.0000000000        0.0000000000
 H           1.0     1.1905273723       -1.1905273723       -1.1905273723
 H           1.0    -1.1905273723        1.1905273723       -1.1905273723
 H           1.0    -1.1905273723       -1.1905273723        1.1905273723
 H           1.0     1.1905273723        1.1905273723        1.1905273723

          INTERNUCLEAR DISTANCES (ANGS.)
          ------------------------------

                1 C          2 H          3 H          4 H          5 H     

   1 C       0.0000000    1.0911920 *  1.0911920 *  1.0911920 *  1.0911920 *
   2 H       1.0911920 *  0.0000000    1.7819091 *  1.7819091 *  1.7819091 *
   3 H       1.0911920 *  1.7819091 *  0.0000000    1.7819091 *  1.7819091 *
   4 H       1.0911920 *  1.7819091 *  1.7819091 *  0.0000000    1.7819091 *
   5 H       1.0911920 *  1.7819091 *  1.7819091 *  1.7819091 *  0.0000000  

  * ... LESS THAN  3.000


     ATOMIC BASIS SET
     ----------------
 THE CONTRACTED PRIMITIVE FUNCTIONS HAVE BEEN UNNORMALIZED
 THE CONTRACTED BASIS FUNCTIONS ARE NOW NORMALIZED TO UNITY

  SHELL TYPE  PRIMITIVE        EXPONENT          CONTRACTION COEFFICIENT(S)

 C         

      1   S       1         33980.0000000    0.000091634546
      1   S       2          5089.0000000    0.000708909013
      1   S       3          1157.0000000    0.003718751399
      1   S       4           326.6000000    0.015467105736
      1   S       5           106.1000000    0.053298075489
      1   S       6            38.1100000    0.148068335205
      1   S       7            14.7500000    0.307762174037
      1   S       8             6.0350000    0.402129644542
      1   S       9             2.5300000    0.218564503067

      2   S      10         33980.0000000   -0.000055710360
      2   S      11          5089.0000000   -0.000442750757
      2   S      12          1157.0000000   -0.002301717514
      2   S      13           326.6000000   -0.009746380913
      2   S      14           106.1000000   -0.033754614039
      2   S      15            38.1100000   -0.100161363410
      2   S      16            14.7500000   -0.226280822554
      2   S      17             6.0350000   -0.414875052487
      2   S      18             2.5300000   -0.346046368509

      3   S      19             0.7355000    1.000000000000

      4   S      20             0.2905000    1.000000000000

      5   S      21             0.1111000    1.000000000000

      6   P      22            34.5100000    0.031687855209
      6   P      23             7.9150000    0.212894307256
      6   P      24             2.3680000    0.839586752016

      7   P      25             0.8132000    1.000000000000

      8   P      26             0.2890000    1.000000000000

      9   P      27             0.1007000    1.000000000000

     10   D      28             1.8480000    1.000000000000

     11   D      29             0.6490000    1.000000000000

     12   D      30             0.2280000    1.000000000000

     13   F      31             1.4190000    1.000000000000

     14   F      32             0.4850000    1.000000000000

     15   G      33             1.0110000    1.000000000000

 H         

     46   S      34            82.6400000    0.022950757793
     46   S      35            12.4100000    0.175540118054
     46   S      36             2.8240000    0.864703550962

     47   S      37             0.7977000    1.000000000000

     48   S      38             0.2581000    1.000000000000

     49   S      39             0.0898900    1.000000000000

     50   P      40             2.2920000    1.000000000000

     51   P      41             0.8380000    1.000000000000

     52   P      42             0.2920000    1.000000000000

     53   D      43             2.0620000    1.000000000000

     54   D      44             0.6620000    1.000000000000

     55   F      45             1.3970000    1.000000000000

 TOTAL NUMBER OF BASIS SET SHELLS             =   55
 NUMBER OF CARTESIAN GAUSSIAN BASIS FUNCTIONS =  210
 NOTE: THIS RUN WILL RESTRICT THE MO VARIATION SPACE TO SPHERICAL HARMONICS.
 THE NUMBER OF ORBITALS KEPT IN THE VARIATIONAL SPACE WILL BE PRINTED LATER.
 NUMBER OF ELECTRONS                          =   10
 CHARGE OF MOLECULE                           =    0
 SPIN MULTIPLICITY                            =    1
 NUMBER OF OCCUPIED ORBITALS (ALPHA)          =    5
 NUMBER OF OCCUPIED ORBITALS (BETA )          =    5
 TOTAL NUMBER OF ATOMS                        =    5
 THE NUCLEAR REPULSION ENERGY IS       13.4207135227

 SELECTED MURRAY-HANDY-LAMING RADIAL GRID

 LEGACY BECKE'S FUZZY CELL METHOD

 SELECTED ORIGINAL BECKE'S PARTITION FUNCTION

     LEBEDEV GRID-BASED DFT OPTIONS
     ------------------------------
     DFTTYP=B3LYP   
     NRAD  =      96     NLEB  =     590
     NRAD0 =      24     NLEB0 =     110
     SWOFF =    5.00E-03 (PURE SCF -> DFT)
     SWITCH=    3.00E-04 (COARSE -> TIGHT GRID)
     THRESH=    0.00E+00 GTHRE=    1.00E+00

 GRIMME'S EMPIRICAL DISPERSION CORRECTION= F

     $CONTRL OPTIONS
     ---------------
 SCFTYP=RHF          RUNTYP=OPTIMIZE     EXETYP=RUN     
 MPLEVL=       0     CITYP =NONE         CCTYP =NONE         VBTYP =NONE    
 DFTTYP=B3LYP        TDDFT =NONE    
 MULT  =       1     ICHARG=       0     NZVAR =       0     COORD =UNIQUE  
 PP    =NONE         RELWFN=NONE         LOCAL =NONE         NUMGRD=       F
 ISPHER=       1     NOSYM =       0     MAXIT =     200     UNITS =ANGS    
 PLTORB=       F     MOLPLT=       F     AIMPAC=       F     FRIEND=        
 NPRINT=       7     IREST =       0     GEOM  =INPUT   
 NORMF =       0     NORMP =       0     ITOL  =      20     ICUT  =       9
 INTTYP=BEST         GRDTYP=BEST         QMTTOL= 1.0E-06

     $SYSTEM OPTIONS
     ---------------
  REPLICATED MEMORY=   250000000 WORDS (ON EVERY NODE).
 DISTRIBUTED MEMDDI=           0 MILLION WORDS IN AGGREGATE,
 MEMDDI DISTRIBUTED OVER   1 PROCESSORS IS           0 WORDS/PROCESSOR.
 TOTAL MEMORY REQUESTED ON EACH PROCESSOR=   250000000 WORDS.
 TIMLIM=        2879.00 MINUTES, OR       2.0 DAYS.
 PARALL= F  BALTYP=  DLB     KDIAG=    0  COREFL= F
 MXSEQ2=     300 MXSEQ3=     150  mem10=         0

          ----------------
          PROPERTIES INPUT
          ----------------

     MOMENTS            FIELD           POTENTIAL          DENSITY
 IEMOM =       1   IEFLD =       0   IEPOT =       0   IEDEN =       0
 WHERE =COMASS     WHERE =NUCLEI     WHERE =NUCLEI     WHERE =NUCLEI  
 OUTPUT=BOTH       OUTPUT=BOTH       OUTPUT=BOTH       OUTPUT=BOTH    
 IEMINT=       0   IEFINT=       0                     IEDINT=       0
                                                       MORB  =       0
          EXTRAPOLATION IN EFFECT
          DIIS IN EFFECT
 ORBITAL PRINTING OPTION: NPREO=     1   210     2     1

     -------------------------------
     INTEGRAL TRANSFORMATION OPTIONS
     -------------------------------
     NWORD  =            0
     CUTOFF = 1.0E-09     MPTRAN =       0
     DIRTRF =       T     AOINTS =DUP     

          ----------------------
          INTEGRAL INPUT OPTIONS
          ----------------------
 NOPK  =       1 NORDER=       0 SCHWRZ=       T

     --------------------------------
     THE POINT GROUP IS TD , ORDER=24
     --------------------------------

 -- VARIATIONAL SPACE WILL BE RESTRICTED TO PURE SPHERICAL HARMONICS ONLY --
 AFTER EXCLUDING CONTAMINANT COMBINATIONS FROM THE CARTESIAN GAUSSIAN BASIS
 SET, THE NUMBER OF SPHERICAL HARMONICS KEPT IN THE VARIATION SPACE IS  175

     DIMENSIONS OF THE SYMMETRY SUBSPACES ARE
 A1  =   19     A2  =    1     E   =   13     T1  =   13     T2  =   30

 ..... DONE SETTING UP THE RUN .....
 STEP CPU TIME =     0.01 TOTAL CPU TIME =          0.0 (      0.0 MIN)
 TOTAL WALL CLOCK TIME=          0.0 SECONDS, CPU UTILIZATION IS    33.33%


          -----------------------------
          STATIONARY POINT LOCATION RUN
          -----------------------------

 OBTAINING INITIAL HESSIAN, HESS=GUESS   
 CARTESIAN COORDINATE OPTIMIZATION USING BADGER'S RULE FORCE CONSTANT GUESS

          PARAMETERS CONTROLLING GEOMETRY SEARCH ARE
          METHOD =QA                  UPHESS =BFGS    
          NNEG   =         0          NFRZ   =         0
          NSTEP  =       999          IFOLOW =         1
          HESS   =GUESS               RESTAR =         F
          IHREP  =         0          HSSEND =         T
          NPRT   =         0          NPUN   =         0
          OPTTOL = 5.000E-04          RMIN   = 1.500E-03
          RMAX   = 1.000E-01          RLIM   = 7.000E-02
          DXMAX  = 3.000E-01          PURIFY =         F
          MOVIE  =         F          TRUPD  =         T
          TRMAX  = 5.000E-01          TRMIN  = 5.000E-02
          ITBMAT =         5          STPT   =         F
          STSTEP = 1.000E-02          PROJCT=          T

 BEGINNING GEOMETRY SEARCH POINT NSERCH=   0 ...

 COORDINATES OF SYMMETRY UNIQUE ATOMS (ANGS)
   ATOM   CHARGE       X              Y              Z
 ------------------------------------------------------------
 C           6.0   0.0000000000   0.0000000000   0.0000000000
 H           1.0   0.6300000000   0.6300000000   0.6300000000
 COORDINATES OF ALL ATOMS ARE (ANGS)
   ATOM   CHARGE       X              Y              Z
 ------------------------------------------------------------
 C           6.0   0.0000000000   0.0000000000   0.0000000000
 H           1.0   0.6300000000  -0.6300000000  -0.6300000000
 H           1.0  -0.6300000000   0.6300000000  -0.6300000000
 H           1.0  -0.6300000000  -0.6300000000   0.6300000000
 H           1.0   0.6300000000   0.6300000000   0.6300000000

          ********************
          1 ELECTRON INTEGRALS
          ********************
 ...... END OF ONE-ELECTRON INTEGRALS ......
 STEP CPU TIME =     0.02 TOTAL CPU TIME =          0.0 (      0.0 MIN)
 TOTAL WALL CLOCK TIME=          0.0 SECONDS, CPU UTILIZATION IS    75.00%

          -------------
          GUESS OPTIONS
          -------------
          GUESS =HUCKEL            NORB  =       0          NORDER=       0
          MIX   =       F          PRTMO =       F          PUNMO =       F
          TOLZ  = 1.0E-08          TOLE  = 1.0E-05
          SYMDEN=       F          PURIFY=       F

 INITIAL GUESS ORBITALS GENERATED BY HUCKEL   ROUTINE.
 HUCKEL GUESS REQUIRES    317046 WORDS.

 STATISTICS FOR GENERATION OF SYMMETRY ORBITAL -Q- MATRIX
 NUMBER OF CARTESIAN ATOMIC ORBITALS=        210
 NUMBER OF SPHERICAL CONTAMINANTS DROPPED=    35
 NUMBER OF LINEARLY DEPENDENT MOS DROPPED=     0
 TOTAL NUMBER OF MOS IN VARIATION SPACE=     175

 SYMMETRIES FOR INITIAL GUESS ORBITALS FOLLOW.   BOTH SET(S).
     5 ORBITALS ARE OCCUPIED (    1 CORE ORBITALS).
     2=A1       3=T2       4=T2       5=T2       6=T2       7=T2       8=T2  
     9=A1      10=A1      11=A1      12=A1      13=A1      14=A1      15=A1  
 ...... END OF INITIAL ORBITAL SELECTION ......
 STEP CPU TIME =     0.01 TOTAL CPU TIME =          0.0 (      0.0 MIN)
 TOTAL WALL CLOCK TIME=          0.1 SECONDS, CPU UTILIZATION IS    66.67%

                    ----------------------
                    AO INTEGRAL TECHNOLOGY
                    ----------------------
     S,P,L SHELL ROTATED AXIS INTEGRALS, REPROGRAMMED BY
        KAZUYA ISHIMURA (IMS) AND JOSE SIERRA (SYNSTAR).
     S,P,D,L SHELL ROTATED AXIS INTEGRALS PROGRAMMED BY
        KAZUYA ISHIMURA (INSTITUTE FOR MOLECULAR SCIENCE).
     S,P,D,F,G SHELL TO TOTAL QUARTET ANGULAR MOMENTUM SUM 5,
        ERIC PROGRAM BY GRAHAM FLETCHER (ELORET AND NASA ADVANCED
        SUPERCOMPUTING DIVISION, AMES RESEARCH CENTER).
     S,P,D,F,G,L SHELL GENERAL RYS QUADRATURE PROGRAMMED BY
        MICHEL DUPUIS (PACIFIC NORTHWEST NATIONAL LABORATORY).

          --------------------
          2 ELECTRON INTEGRALS
          --------------------

 DIRECT SCF METHOD SKIPS INTEGRAL STORAGE ON DISK.
 DIRECT TRANSFORMATION SKIPS AO INTEGRAL STORAGE ON DISK.
  ...... END OF TWO-ELECTRON INTEGRALS .....
 STEP CPU TIME =     0.01 TOTAL CPU TIME =          0.0 (      0.0 MIN)
 TOTAL WALL CLOCK TIME=          0.1 SECONDS, CPU UTILIZATION IS    62.50%

          --------------------------
             R-B3LYP SCF CALCULATION
          --------------------------

     NUCLEAR ENERGY =        13.4207135227
     MAXIT =  200     NPUNCH=    2
     EXTRAP=T  DAMP=F  SHIFT=F  RSTRCT=F  DIIS=T  DEM=F  SOSCF=F
         DENSITY MATRIX CONVERGENCE THRESHOLD=  2.00E-05
     COARSE -> FINE DFT GRID SWITCH THRESHOLD=  3.00E-04 (SWITCH IN $DFT)
                   HF -> DFT SWITCH THRESHOLD=  5.00E-03 (SWOFF IN $DFT)
     MEMORY REQUIRED FOR RHF ITERS=    794843 WORDS.

 DIRECT SCF CALCULATION, SCHWRZ=T   FDIFF=T,  DIRTHR=  0.00E+00 NITDIR=10
 SCHWARZ INEQUALITY OVERHEAD:     22155 INTEGRALS, T=        0.00

 DFT CODE IS SWITCHING FROM THE FINE GRID NRAD= 96,  NLEB=  590
                      TO THE COARSE GRID NRAD0= 24, NLEB0=  110

     EXCHANGE FUNCTIONAL   =B88&HFX   
     CORRELATION FUNCTIONAL=LYP88&VWN5
     DFT THRESHOLD         =.141E-07
     GRID CHANGE THRESHOLD =.300E-03
 FOR AN EULER-MACLAURIN QUADRATURE USING  96 RADIAL POINTS:
 SMALLEST GAUSSIAN PRIMITIVE EXPONENT=        0.0898900000 OF TYPE -S-
 ON ATOM NUMBER   2 HAS RADIAL NORMALIZATION=  1.000000
  LARGEST GAUSSIAN PRIMITIVE EXPONENT=    33980.0000000000 OF TYPE -S-
 ON ATOM NUMBER   1 HAS RADIAL NORMALIZATION=  1.000000
 DFT IS SWITCHED OFF, PERFORMING PURE SCF UNTIL SWOFF THRESHOLD IS REACHED.

                                                                                   NONZERO     BLOCKS
 ITER EX DEM     TOTAL ENERGY        E CHANGE  DENSITY CHANGE    DIIS ERROR      INTEGRALS    SKIPPED
   1  0  0      -40.0890005447   -40.0890005447   0.910876351   0.649754316       25791575         94
          * * *   INITIATING DIIS PROCEDURE   * * *
   2  1  0      -40.2102318867    -0.1212313420   0.064527111   0.030072476       25791265        116
   3  2  0      -40.2153915768    -0.0051596901   0.014467571   0.026129426       25777509        271
   4  3  0      -40.2160028311    -0.0006112543   0.005860611   0.003587931       25747091        654
   5  4  0      -40.2160525864    -0.0000497553   0.000812174   0.000946476       25700397        960
 CONVERGED TO SWOFF, SO DFT CALCULATION IS NOW SWITCHED ON.
          * * *   INITIATING DIIS PROCEDURE   * * *
   6  5  0      -40.4983640073    -0.2823114210   0.058582698   0.078458024       25788401        107
   7  6  0      -40.5046988174    -0.0063348100   0.013909088   0.019309021       25778441        260
   8  7  0      -40.5046572676     0.0000415498   0.007888344   0.020622432       25751584        583
   9  8  0      -40.5055716381    -0.0009143706   0.000595446   0.001127258       25736274        818
  10  9  0      -40.5055740854    -0.0000024472   0.000017462   0.000016197       25541832       1878
 DFT CODE IS SWITCHING BACK TO THE FINE GRID
          * * *   INITIATING DIIS PROCEDURE   * * *
  11 10  0      -40.5055047000     0.0000693854   0.013233379   0.002891603       25788493        102
  12 11  0      -40.5055166308    -0.0000119308   0.000356615   0.000193428       25766878        581
  13 12  0      -40.5055166344    -0.0000000036   0.000114104   0.000289249       25628118       1578
  14 13  0      -40.5055168070    -0.0000001726   0.000008741   0.000008894       25251543       3002
  15 14  0      -40.5055168074    -0.0000000004   0.000000918   0.000000755       24829577       4406
  16 15  0      -40.5055168074    -0.0000000000   0.000000096   0.000000101       23278663       8379

          -----------------
          DENSITY CONVERGED
          -----------------
     TIME TO FORM FOCK OPERATORS=      14.7 SECONDS (       0.9 SEC/ITER)
     FOCK TIME ON FIRST ITERATION=       0.6, LAST ITERATION=       1.4
     TIME TO SOLVE SCF EQUATIONS=       0.2 SECONDS (       0.0 SEC/ITER)

 FINAL R-B3LYP ENERGY IS      -40.5055168074 AFTER  16 ITERATIONS
 DFT EXCHANGE + CORRELATION ENERGY =        -5.5581664989
 TOTAL ELECTRON NUMBER             =        10.0000312146

          ------------
          EIGENVECTORS
          ------------

                      1          2          3          4          5
                  -10.1504    -0.6927    -0.3918    -0.3918    -0.3918
                     A1         A1         T2         T2         T2  
    1  C  1  S    1.008038  -0.030155   0.000000   0.000000   0.000000
    2  C  1  S    0.024729   0.257241   0.000000   0.000000   0.000000
    3  C  1  S    0.055900   0.209735   0.000000   0.000000   0.000000
    4  C  1  S   -0.032604   0.408279   0.000000   0.000000   0.000000
    5  C  1  S   -0.001592   0.128713   0.000000   0.000000   0.000000
    6  C  1  X    0.000000   0.000000   0.123640   0.000000   0.000000
    7  C  1  Y    0.000000   0.000000   0.000000   0.123640   0.000000
    8  C  1  Z    0.000000   0.000000   0.000000   0.000000   0.123640
    9  C  1  X    0.000000   0.000000   0.221747   0.000000   0.000000
   10  C  1  Y    0.000000   0.000000   0.000000   0.221747   0.000000
   11  C  1  Z    0.000000   0.000000   0.000000   0.000000   0.221747
   12  C  1  X    0.000000   0.000000   0.239692   0.000000   0.000000
   13  C  1  Y    0.000000   0.000000   0.000000   0.239692   0.000000
   14  C  1  Z    0.000000   0.000000   0.000000   0.000000   0.239692
   15  C  1  X    0.000000   0.000000   0.101525   0.000000   0.000000
   16  C  1  Y    0.000000   0.000000   0.000000   0.101525   0.000000
   17  C  1  Z    0.000000   0.000000   0.000000   0.000000   0.101525
   18  C  1 XX    0.000000   0.000000   0.000000   0.000000   0.000000
   19  C  1 YY    0.000000   0.000000   0.000000   0.000000   0.000000
   20  C  1 ZZ    0.000000   0.000000   0.000000   0.000000   0.000000
   21  C  1 XY    0.000000   0.000000   0.000000   0.000000   0.006127
   22  C  1 XZ    0.000000   0.000000   0.000000   0.006127   0.000000
   23  C  1 YZ    0.000000   0.000000   0.006127   0.000000   0.000000
   24  C  1 XX    0.000000   0.000000   0.000000   0.000000   0.000000
   25  C  1 YY    0.000000   0.000000   0.000000   0.000000   0.000000
   26  C  1 ZZ    0.000000   0.000000   0.000000   0.000000   0.000000
   27  C  1 XY    0.000000   0.000000   0.000000   0.000000   0.010941
   28  C  1 XZ    0.000000   0.000000   0.000000   0.010941   0.000000
   29  C  1 YZ    0.000000   0.000000   0.010941   0.000000   0.000000
   30  C  1 XX    0.000000   0.000000   0.000000   0.000000   0.000000
   31  C  1 YY    0.000000   0.000000   0.000000   0.000000   0.000000
   32  C  1 ZZ    0.000000   0.000000   0.000000   0.000000   0.000000
   33  C  1 XY    0.000000   0.000000   0.000000   0.000000   0.012943
   34  C  1 XZ    0.000000   0.000000   0.000000   0.012943   0.000000
   35  C  1 YZ    0.000000   0.000000   0.012943   0.000000   0.000000
   36  C  1 XXX   0.000000   0.000000  -0.000707   0.000000   0.000000
   37  C  1 YYY   0.000000   0.000000   0.000000  -0.000707   0.000000
   38  C  1 ZZZ   0.000000   0.000000   0.000000   0.000000  -0.000707
   39  C  1 XXY   0.000000   0.000000   0.000000   0.000474   0.000000
   40  C  1 XXZ   0.000000   0.000000   0.000000   0.000000   0.000474
   41  C  1 YYX   0.000000   0.000000   0.000474   0.000000   0.000000
   42  C  1 YYZ   0.000000   0.000000   0.000000   0.000000   0.000474
   43  C  1 ZZX   0.000000   0.000000   0.000474   0.000000   0.000000
   44  C  1 ZZY   0.000000   0.000000   0.000000   0.000474   0.000000
   45  C  1 XYZ   0.002715   0.002986   0.000000   0.000000   0.000000
   46  C  1 XXX   0.000000   0.000000   0.000535   0.000000   0.000000
   47  C  1 YYY   0.000000   0.000000   0.000000   0.000535   0.000000
   48  C  1 ZZZ   0.000000   0.000000   0.000000   0.000000   0.000535
   49  C  1 XXY   0.000000   0.000000   0.000000  -0.000359   0.000000
   50  C  1 XXZ   0.000000   0.000000   0.000000   0.000000  -0.000359
   51  C  1 YYX   0.000000   0.000000  -0.000359   0.000000   0.000000
   52  C  1 YYZ   0.000000   0.000000   0.000000   0.000000  -0.000359
   53  C  1 ZZX   0.000000   0.000000  -0.000359   0.000000   0.000000
   54  C  1 ZZY   0.000000   0.000000   0.000000  -0.000359   0.000000
   55  C  1 XYZ  -0.004529   0.008062   0.000000   0.000000   0.000000
   56  C  1XXXX   0.000068  -0.000985   0.000000   0.000000   0.000000
   57  C  1YYYY   0.000068  -0.000985   0.000000   0.000000   0.000000
   58  C  1ZZZZ   0.000068  -0.000985   0.000000   0.000000   0.000000
   59  C  1XXXY   0.000000   0.000000   0.000000   0.000000  -0.000448
   60  C  1XXXZ   0.000000   0.000000   0.000000  -0.000448   0.000000
   61  C  1YYYX   0.000000   0.000000   0.000000   0.000000  -0.000448
   62  C  1YYYZ   0.000000   0.000000  -0.000448   0.000000   0.000000
   63  C  1ZZZX   0.000000   0.000000   0.000000  -0.000448   0.000000
   64  C  1ZZZY   0.000000   0.000000  -0.000448   0.000000   0.000000
   65  C  1XXYY  -0.000059   0.000865   0.000000   0.000000   0.000000
   66  C  1XXZZ  -0.000059   0.000865   0.000000   0.000000   0.000000
   67  C  1YYZZ  -0.000059   0.000865   0.000000   0.000000   0.000000
   68  C  1XXYZ   0.000000   0.000000   0.001202   0.000000   0.000000
   69  C  1YYXZ   0.000000   0.000000   0.000000   0.001202   0.000000
   70  C  1ZZXY   0.000000   0.000000   0.000000   0.000000   0.001202
   71  H  2  S    0.000498   0.033389   0.039964  -0.039964  -0.039964
   72  H  2  S    0.001654   0.076858   0.105665  -0.105665  -0.105665
   73  H  2  S    0.003338   0.071476   0.133259  -0.133259  -0.133259
   74  H  2  S    0.000041   0.010048   0.057562  -0.057562  -0.057562
   75  H  2  X   -0.000416  -0.001967   0.000087   0.001826   0.001826
   76  H  2  Y    0.000416   0.001967   0.001826   0.000087  -0.001826
   77  H  2  Z    0.000416   0.001967   0.001826  -0.001826   0.000087
   78  H  2  X    0.001326  -0.004384  -0.001297   0.008009   0.008009
   79  H  2  Y   -0.001326   0.004384   0.008009  -0.001297  -0.008009
   80  H  2  Z   -0.001326   0.004384   0.008009  -0.008009  -0.001297
   81  H  2  X   -0.000441  -0.001828   0.005622   0.005712   0.005712
   82  H  2  Y    0.000441   0.001828   0.005712   0.005622  -0.005712
   83  H  2  Z    0.000441   0.001828   0.005712  -0.005712   0.005622
   84  H  2 XX    0.000000   0.000000  -0.000454  -0.000227  -0.000227
   85  H  2 YY    0.000000   0.000000   0.000227   0.000454  -0.000227
   86  H  2 ZZ    0.000000   0.000000   0.000227  -0.000227   0.000454
   87  H  2 XY    0.000175  -0.000487  -0.000468   0.000468   0.000996
   88  H  2 XZ    0.000175  -0.000487  -0.000468   0.000996   0.000468
   89  H  2 YZ   -0.000175   0.000487   0.000996  -0.000468  -0.000468
   90  H  2 XX    0.000000   0.000000  -0.001590  -0.000795  -0.000795
   91  H  2 YY    0.000000   0.000000   0.000795   0.001590  -0.000795
   92  H  2 ZZ    0.000000   0.000000   0.000795  -0.000795   0.001590
   93  H  2 XY    0.001573  -0.000902  -0.001174   0.001174   0.002448
   94  H  2 XZ    0.001573  -0.000902  -0.001174   0.002448   0.001174
   95  H  2 YZ   -0.001573   0.000902   0.002448  -0.001174  -0.001174
   96  H  2 XXX  -0.000390   0.000085   0.000348  -0.000230  -0.000230
   97  H  2 YYY   0.000390  -0.000085  -0.000230   0.000348   0.000230
   98  H  2 ZZZ   0.000390  -0.000085  -0.000230   0.000230   0.000348
   99  H  2 XXY  -0.000262   0.000057  -0.000094  -0.000233  -0.000403
  100  H  2 XXZ  -0.000262   0.000057  -0.000094  -0.000403  -0.000233
  101  H  2 YYX   0.000262  -0.000057  -0.000233  -0.000094   0.000403
  102  H  2 YYZ  -0.000262   0.000057   0.000403   0.000094  -0.000233
  103  H  2 ZZX   0.000262  -0.000057  -0.000233   0.000403  -0.000094
  104  H  2 ZZY  -0.000262   0.000057   0.000403  -0.000233   0.000094
  105  H  2 XYZ   0.000979  -0.000194  -0.000610   0.000610   0.000610
  106  H  3  S    0.000498   0.033389  -0.039964   0.039964  -0.039964
  107  H  3  S    0.001654   0.076858  -0.105665   0.105665  -0.105665
  108  H  3  S    0.003338   0.071476  -0.133259   0.133259  -0.133259
  109  H  3  S    0.000041   0.010048  -0.057562   0.057562  -0.057562
  110  H  3  X    0.000416   0.001967   0.000087   0.001826  -0.001826
  111  H  3  Y   -0.000416  -0.001967   0.001826   0.000087   0.001826
  112  H  3  Z    0.000416   0.001967  -0.001826   0.001826   0.000087
  113  H  3  X   -0.001326   0.004384  -0.001297   0.008009  -0.008009
  114  H  3  Y    0.001326  -0.004384   0.008009  -0.001297   0.008009
  115  H  3  Z   -0.001326   0.004384  -0.008009   0.008009  -0.001297
  116  H  3  X    0.000441   0.001828   0.005622   0.005712  -0.005712
  117  H  3  Y   -0.000441  -0.001828   0.005712   0.005622   0.005712
  118  H  3  Z    0.000441   0.001828  -0.005712   0.005712   0.005622
  119  H  3 XX    0.000000   0.000000   0.000454   0.000227  -0.000227
  120  H  3 YY    0.000000   0.000000  -0.000227  -0.000454  -0.000227
  121  H  3 ZZ    0.000000   0.000000  -0.000227   0.000227   0.000454
  122  H  3 XY    0.000175  -0.000487   0.000468  -0.000468   0.000996
  123  H  3 XZ   -0.000175   0.000487  -0.000468   0.000996  -0.000468
  124  H  3 YZ    0.000175  -0.000487   0.000996  -0.000468   0.000468
  125  H  3 XX    0.000000   0.000000   0.001590   0.000795  -0.000795
  126  H  3 YY    0.000000   0.000000  -0.000795  -0.001590  -0.000795
  127  H  3 ZZ    0.000000   0.000000  -0.000795   0.000795   0.001590
  128  H  3 XY    0.001573  -0.000902   0.001174  -0.001174   0.002448
  129  H  3 XZ   -0.001573   0.000902  -0.001174   0.002448  -0.001174
  130  H  3 YZ    0.001573  -0.000902   0.002448  -0.001174   0.001174
  131  H  3 XXX   0.000390  -0.000085   0.000348  -0.000230   0.000230
  132  H  3 YYY  -0.000390   0.000085  -0.000230   0.000348  -0.000230
  133  H  3 ZZZ   0.000390  -0.000085   0.000230  -0.000230   0.000348
  134  H  3 XXY   0.000262  -0.000057  -0.000094  -0.000233   0.000403
  135  H  3 XXZ  -0.000262   0.000057   0.000094   0.000403  -0.000233
  136  H  3 YYX  -0.000262   0.000057  -0.000233  -0.000094  -0.000403
  137  H  3 YYZ  -0.000262   0.000057  -0.000403  -0.000094  -0.000233
  138  H  3 ZZX  -0.000262   0.000057  -0.000233   0.000403   0.000094
  139  H  3 ZZY   0.000262  -0.000057   0.000403  -0.000233  -0.000094
  140  H  3 XYZ   0.000979  -0.000194   0.000610  -0.000610   0.000610
  141  H  4  S    0.000498   0.033389  -0.039964  -0.039964   0.039964
  142  H  4  S    0.001654   0.076858  -0.105665  -0.105665   0.105665
  143  H  4  S    0.003338   0.071476  -0.133259  -0.133259   0.133259
  144  H  4  S    0.000041   0.010048  -0.057562  -0.057562   0.057562
  145  H  4  X    0.000416   0.001967   0.000087  -0.001826   0.001826
  146  H  4  Y    0.000416   0.001967  -0.001826   0.000087   0.001826
  147  H  4  Z   -0.000416  -0.001967   0.001826   0.001826   0.000087
  148  H  4  X   -0.001326   0.004384  -0.001297  -0.008009   0.008009
  149  H  4  Y   -0.001326   0.004384  -0.008009  -0.001297   0.008009
  150  H  4  Z    0.001326  -0.004384   0.008009   0.008009  -0.001297
  151  H  4  X    0.000441   0.001828   0.005622  -0.005712   0.005712
  152  H  4  Y    0.000441   0.001828  -0.005712   0.005622   0.005712
  153  H  4  Z   -0.000441  -0.001828   0.005712   0.005712   0.005622
  154  H  4 XX    0.000000   0.000000   0.000454  -0.000227   0.000227
  155  H  4 YY    0.000000   0.000000  -0.000227   0.000454   0.000227
  156  H  4 ZZ    0.000000   0.000000  -0.000227  -0.000227  -0.000454
  157  H  4 XY   -0.000175   0.000487  -0.000468  -0.000468   0.000996
  158  H  4 XZ    0.000175  -0.000487   0.000468   0.000996  -0.000468
  159  H  4 YZ    0.000175  -0.000487   0.000996   0.000468  -0.000468
  160  H  4 XX    0.000000   0.000000   0.001590  -0.000795   0.000795
  161  H  4 YY    0.000000   0.000000  -0.000795   0.001590   0.000795
  162  H  4 ZZ    0.000000   0.000000  -0.000795  -0.000795  -0.001590
  163  H  4 XY   -0.001573   0.000902  -0.001174  -0.001174   0.002448
  164  H  4 XZ    0.001573  -0.000902   0.001174   0.002448  -0.001174
  165  H  4 YZ    0.001573  -0.000902   0.002448   0.001174  -0.001174
  166  H  4 XXX   0.000390  -0.000085   0.000348   0.000230  -0.000230
  167  H  4 YYY   0.000390  -0.000085   0.000230   0.000348  -0.000230
  168  H  4 ZZZ  -0.000390   0.000085  -0.000230  -0.000230   0.000348
  169  H  4 XXY  -0.000262   0.000057   0.000094  -0.000233   0.000403
  170  H  4 XXZ   0.000262  -0.000057  -0.000094   0.000403  -0.000233
  171  H  4 YYX  -0.000262   0.000057  -0.000233   0.000094   0.000403
  172  H  4 YYZ   0.000262  -0.000057   0.000403  -0.000094  -0.000233
  173  H  4 ZZX  -0.000262   0.000057  -0.000233  -0.000403  -0.000094
  174  H  4 ZZY  -0.000262   0.000057  -0.000403  -0.000233  -0.000094
  175  H  4 XYZ   0.000979  -0.000194   0.000610   0.000610  -0.000610
  176  H  5  S    0.000498   0.033389   0.039964   0.039964   0.039964
  177  H  5  S    0.001654   0.076858   0.105665   0.105665   0.105665
  178  H  5  S    0.003338   0.071476   0.133259   0.133259   0.133259
  179  H  5  S    0.000041   0.010048   0.057562   0.057562   0.057562
  180  H  5  X   -0.000416  -0.001967   0.000087  -0.001826  -0.001826
  181  H  5  Y   -0.000416  -0.001967  -0.001826   0.000087  -0.001826
  182  H  5  Z   -0.000416  -0.001967  -0.001826  -0.001826   0.000087
  183  H  5  X    0.001326  -0.004384  -0.001297  -0.008009  -0.008009
  184  H  5  Y    0.001326  -0.004384  -0.008009  -0.001297  -0.008009
  185  H  5  Z    0.001326  -0.004384  -0.008009  -0.008009  -0.001297
  186  H  5  X   -0.000441  -0.001828   0.005622  -0.005712  -0.005712
  187  H  5  Y   -0.000441  -0.001828  -0.005712   0.005622  -0.005712
  188  H  5  Z   -0.000441  -0.001828  -0.005712  -0.005712   0.005622
  189  H  5 XX    0.000000   0.000000  -0.000454   0.000227   0.000227
  190  H  5 YY    0.000000   0.000000   0.000227  -0.000454   0.000227
  191  H  5 ZZ    0.000000   0.000000   0.000227   0.000227  -0.000454
  192  H  5 XY   -0.000175   0.000487   0.000468   0.000468   0.000996
  193  H  5 XZ   -0.000175   0.000487   0.000468   0.000996   0.000468
  194  H  5 YZ   -0.000175   0.000487   0.000996   0.000468   0.000468
  195  H  5 XX    0.000000   0.000000  -0.001590   0.000795   0.000795
  196  H  5 YY    0.000000   0.000000   0.000795  -0.001590   0.000795
  197  H  5 ZZ    0.000000   0.000000   0.000795   0.000795  -0.001590
  198  H  5 XY   -0.001573   0.000902   0.001174   0.001174   0.002448
  199  H  5 XZ   -0.001573   0.000902   0.001174   0.002448   0.001174
  200  H  5 YZ   -0.001573   0.000902   0.002448   0.001174   0.001174
  201  H  5 XXX  -0.000390   0.000085   0.000348   0.000230   0.000230
  202  H  5 YYY  -0.000390   0.000085   0.000230   0.000348   0.000230
  203  H  5 ZZZ  -0.000390   0.000085   0.000230   0.000230   0.000348
  204  H  5 XXY   0.000262  -0.000057   0.000094  -0.000233  -0.000403
  205  H  5 XXZ   0.000262  -0.000057   0.000094  -0.000403  -0.000233
  206  H  5 YYX   0.000262  -0.000057  -0.000233   0.000094  -0.000403
  207  H  5 YYZ   0.000262  -0.000057  -0.000403   0.000094  -0.000233
  208  H  5 ZZX   0.000262  -0.000057  -0.000233  -0.000403   0.000094
  209  H  5 ZZY   0.000262  -0.000057  -0.000403  -0.000233   0.000094
  210  H  5 XYZ   0.000979  -0.000194  -0.000610  -0.000610  -0.000610

                      6          7          8          9         10
                    0.0311     0.1076     0.1076     0.1076     0.1763
                     A1         T2         T2         T2         T2  
    1  C  1  S   -0.007861   0.000000   0.000000   0.000000   0.000000
    2  C  1  S    0.134083   0.000000   0.000000   0.000000   0.000000
    3  C  1  S   -0.055119   0.000000   0.000000   0.000000   0.000000
    4  C  1  S    1.626195   0.000000   0.000000   0.000000   0.000000
    5  C  1  S    4.583664   0.000000   0.000000   0.000000   0.000000
    6  C  1  X    0.000000   0.000000  -0.084603   0.000000  -0.041401
    7  C  1  Y    0.000000   0.084603   0.000000   0.000000   0.000000
    8  C  1  Z    0.000000   0.000000   0.000000   0.084603   0.000000
    9  C  1  X    0.000000   0.000000  -0.141758   0.000000   0.005200
   10  C  1  Y    0.000000   0.141758   0.000000   0.000000   0.000000
   11  C  1  Z    0.000000   0.000000   0.000000   0.141758   0.000000
   12  C  1  X    0.000000   0.000000  -0.573107   0.000000   1.974152
   13  C  1  Y    0.000000   0.573107   0.000000   0.000000   0.000000
   14  C  1  Z    0.000000   0.000000   0.000000   0.573107   0.000000
   15  C  1  X    0.000000   0.000000  -1.769823   0.000000   2.954138
   16  C  1  Y    0.000000   1.769823   0.000000   0.000000   0.000000
   17  C  1  Z    0.000000   0.000000   0.000000   1.769823   0.000000
   18  C  1 XX    0.000000   0.000000   0.000000   0.000000   0.000000
   19  C  1 YY    0.000000   0.000000   0.000000   0.000000   0.000000
   20  C  1 ZZ    0.000000   0.000000   0.000000   0.000000   0.000000
   21  C  1 XY    0.000000   0.000000   0.000000  -0.000930   0.000000
   22  C  1 XZ    0.000000  -0.000930   0.000000   0.000000   0.000000
   23  C  1 YZ    0.000000   0.000000   0.000930   0.000000  -0.015542
   24  C  1 XX    0.000000   0.000000   0.000000   0.000000   0.000000
   25  C  1 YY    0.000000   0.000000   0.000000   0.000000   0.000000
   26  C  1 ZZ    0.000000   0.000000   0.000000   0.000000   0.000000
   27  C  1 XY    0.000000   0.000000   0.000000  -0.024772   0.000000
   28  C  1 XZ    0.000000  -0.024772   0.000000   0.000000   0.000000
   29  C  1 YZ    0.000000   0.000000   0.024772   0.000000   0.176159
   30  C  1 XX    0.000000   0.000000   0.000000   0.000000   0.000000
   31  C  1 YY    0.000000   0.000000   0.000000   0.000000   0.000000
   32  C  1 ZZ    0.000000   0.000000   0.000000   0.000000   0.000000
   33  C  1 XY    0.000000   0.000000   0.000000   0.169851   0.000000
   34  C  1 XZ    0.000000   0.169851   0.000000   0.000000   0.000000
   35  C  1 YZ    0.000000   0.000000  -0.169851   0.000000   0.865192
   36  C  1 XXX   0.000000   0.000000  -0.002019   0.000000  -0.008949
   37  C  1 YYY   0.000000   0.002019   0.000000   0.000000   0.000000
   38  C  1 ZZZ   0.000000   0.000000   0.000000   0.002019   0.000000
   39  C  1 XXY   0.000000  -0.001355   0.000000   0.000000   0.000000
   40  C  1 XXZ   0.000000   0.000000   0.000000  -0.001355   0.000000
   41  C  1 YYX   0.000000   0.000000   0.001355   0.000000   0.006003
   42  C  1 YYZ   0.000000   0.000000   0.000000  -0.001355   0.000000
   43  C  1 ZZX   0.000000   0.000000   0.001355   0.000000   0.006003
   44  C  1 ZZY   0.000000  -0.001355   0.000000   0.000000   0.000000
   45  C  1 XYZ   0.003809   0.000000   0.000000   0.000000   0.000000
   46  C  1 XXX   0.000000   0.000000  -0.006702   0.000000  -0.053091
   47  C  1 YYY   0.000000   0.006702   0.000000   0.000000   0.000000
   48  C  1 ZZZ   0.000000   0.000000   0.000000   0.006702   0.000000
   49  C  1 XXY   0.000000  -0.004496   0.000000   0.000000   0.000000
   50  C  1 XXZ   0.000000   0.000000   0.000000  -0.004496   0.000000
   51  C  1 YYX   0.000000   0.000000   0.004496   0.000000   0.035614
   52  C  1 YYZ   0.000000   0.000000   0.000000  -0.004496   0.000000
   53  C  1 ZZX   0.000000   0.000000   0.004496   0.000000   0.035614
   54  C  1 ZZY   0.000000  -0.004496   0.000000   0.000000   0.000000
   55  C  1 XYZ   0.086275   0.000000   0.000000   0.000000   0.000000
   56  C  1XXXX  -0.005534   0.000000   0.000000   0.000000   0.000000
   57  C  1YYYY  -0.005534   0.000000   0.000000   0.000000   0.000000
   58  C  1ZZZZ  -0.005534   0.000000   0.000000   0.000000   0.000000
   59  C  1XXXY   0.000000   0.000000   0.000000  -0.000817   0.000000
   60  C  1XXXZ   0.000000  -0.000817   0.000000   0.000000   0.000000
   61  C  1YYYX   0.000000   0.000000   0.000000  -0.000817   0.000000
   62  C  1YYYZ   0.000000   0.000000   0.000817   0.000000  -0.006453
   63  C  1ZZZX   0.000000  -0.000817   0.000000   0.000000   0.000000
   64  C  1ZZZY   0.000000   0.000000   0.000817   0.000000  -0.006453
   65  C  1XXYY   0.004861   0.000000   0.000000   0.000000   0.000000
   66  C  1XXZZ   0.004861   0.000000   0.000000   0.000000   0.000000
   67  C  1YYZZ   0.004861   0.000000   0.000000   0.000000   0.000000
   68  C  1XXYZ   0.000000   0.000000  -0.002194   0.000000   0.017316
   69  C  1YYXZ   0.000000   0.002194   0.000000   0.000000   0.000000
   70  C  1ZZXY   0.000000   0.000000   0.000000   0.002194   0.000000
   71  H  2  S    0.000963   0.003048   0.003048   0.003048  -0.021162
   72  H  2  S   -0.025806   0.019416   0.019416   0.019416  -0.026686
   73  H  2  S   -0.727874   0.265232   0.265232   0.265232  -2.199662
   74  H  2  S   -1.196685   1.853317   1.853317   1.853317  -0.757087
   75  H  2  X   -0.002130  -0.000262  -0.001216  -0.000262  -0.007934
   76  H  2  Y    0.002130   0.001216   0.000262   0.000262   0.008532
   77  H  2  Z    0.002130   0.000262   0.000262   0.001216   0.008532
   78  H  2  X    0.010725   0.020232   0.009266   0.020232   0.078865
   79  H  2  Y   -0.010725  -0.009266  -0.020232  -0.020232  -0.061154
   80  H  2  Z   -0.010725  -0.020232  -0.020232  -0.009266  -0.061154
   81  H  2  X    0.187007  -0.106581  -0.074903  -0.106581   0.269037
   82  H  2  Y   -0.187007   0.074903   0.106581   0.106581  -0.394545
   83  H  2  Z   -0.187007   0.106581   0.106581   0.074903  -0.394545
   84  H  2 XX    0.000000  -0.000157   0.000314  -0.000157  -0.000345
   85  H  2 YY    0.000000   0.000314  -0.000157  -0.000157   0.000173
   86  H  2 ZZ    0.000000  -0.000157  -0.000157   0.000314   0.000173
   87  H  2 XY   -0.001094   0.001114   0.001114   0.001813   0.002049
   88  H  2 XZ   -0.001094   0.001813   0.001114   0.001114   0.002049
   89  H  2 YZ    0.001094  -0.001114  -0.001813  -0.001114   0.003194
   90  H  2 XX    0.000000   0.000745  -0.001491   0.000745   0.008975
   91  H  2 YY    0.000000  -0.001491   0.000745   0.000745  -0.004488
   92  H  2 ZZ    0.000000   0.000745   0.000745  -0.001491  -0.004488
   93  H  2 XY    0.019738  -0.003690  -0.003690  -0.010694   0.035132
   94  H  2 XZ    0.019738  -0.010694  -0.003690  -0.003690   0.035132
   95  H  2 YZ   -0.019738   0.003690   0.010694   0.003690  -0.072777
   96  H  2 XXX  -0.000708  -0.000268   0.000100  -0.000268  -0.002960
   97  H  2 YYY   0.000708  -0.000100   0.000268   0.000268   0.003199
   98  H  2 ZZZ   0.000708   0.000268   0.000268  -0.000100   0.003199
   99  H  2 XXY  -0.000475   0.000067  -0.000737   0.000378  -0.001337
  100  H  2 XXZ  -0.000475   0.000378  -0.000737   0.000067  -0.001337
  101  H  2 YYX   0.000475   0.000737  -0.000067  -0.000378   0.001985
  102  H  2 YYZ  -0.000475  -0.000737   0.000378   0.000067  -0.002954
  103  H  2 ZZX   0.000475  -0.000378  -0.000067   0.000737   0.001985
  104  H  2 ZZY  -0.000475   0.000067   0.000378  -0.000737  -0.002954
  105  H  2 XYZ   0.001736   0.000609   0.000609   0.000609   0.005704
  106  H  3  S    0.000963  -0.003048  -0.003048   0.003048   0.021162
  107  H  3  S   -0.025806  -0.019416  -0.019416   0.019416   0.026686
  108  H  3  S   -0.727874  -0.265232  -0.265232   0.265232   2.199662
  109  H  3  S   -1.196685  -1.853317  -1.853317   1.853317   0.757087
  110  H  3  X    0.002130  -0.000262  -0.001216   0.000262  -0.007934
  111  H  3  Y   -0.002130   0.001216   0.000262  -0.000262   0.008532
  112  H  3  Z    0.002130  -0.000262  -0.000262   0.001216  -0.008532
  113  H  3  X   -0.010725   0.020232   0.009266  -0.020232   0.078865
  114  H  3  Y    0.010725  -0.009266  -0.020232   0.020232  -0.061154
  115  H  3  Z   -0.010725   0.020232   0.020232  -0.009266   0.061154
  116  H  3  X   -0.187007  -0.106581  -0.074903   0.106581   0.269037
  117  H  3  Y    0.187007   0.074903   0.106581  -0.106581  -0.394545
  118  H  3  Z   -0.187007  -0.106581  -0.106581   0.074903   0.394545
  119  H  3 XX    0.000000   0.000157  -0.000314  -0.000157   0.000345
  120  H  3 YY    0.000000  -0.000314   0.000157  -0.000157  -0.000173
  121  H  3 ZZ    0.000000   0.000157   0.000157   0.000314  -0.000173
  122  H  3 XY   -0.001094  -0.001114  -0.001114   0.001813  -0.002049
  123  H  3 XZ    0.001094   0.001813   0.001114  -0.001114   0.002049
  124  H  3 YZ   -0.001094  -0.001114  -0.001813   0.001114   0.003194
  125  H  3 XX    0.000000  -0.000745   0.001491   0.000745  -0.008975
  126  H  3 YY    0.000000   0.001491  -0.000745   0.000745   0.004488
  127  H  3 ZZ    0.000000  -0.000745  -0.000745  -0.001491   0.004488
  128  H  3 XY    0.019738   0.003690   0.003690  -0.010694  -0.035132
  129  H  3 XZ   -0.019738  -0.010694  -0.003690   0.003690   0.035132
  130  H  3 YZ    0.019738   0.003690   0.010694  -0.003690  -0.072777
  131  H  3 XXX   0.000708  -0.000268   0.000100   0.000268  -0.002960
  132  H  3 YYY  -0.000708  -0.000100   0.000268  -0.000268   0.003199
  133  H  3 ZZZ   0.000708  -0.000268  -0.000268  -0.000100  -0.003199
  134  H  3 XXY   0.000475   0.000067  -0.000737  -0.000378  -0.001337
  135  H  3 XXZ  -0.000475  -0.000378   0.000737   0.000067   0.001337
  136  H  3 YYX  -0.000475   0.000737  -0.000067   0.000378   0.001985
  137  H  3 YYZ  -0.000475   0.000737  -0.000378   0.000067   0.002954
  138  H  3 ZZX  -0.000475  -0.000378  -0.000067  -0.000737   0.001985
  139  H  3 ZZY   0.000475   0.000067   0.000378   0.000737  -0.002954
  140  H  3 XYZ   0.001736  -0.000609  -0.000609   0.000609  -0.005704
  141  H  4  S    0.000963   0.003048  -0.003048  -0.003048   0.021162
  142  H  4  S   -0.025806   0.019416  -0.019416  -0.019416   0.026686
  143  H  4  S   -0.727874   0.265232  -0.265232  -0.265232   2.199662
  144  H  4  S   -1.196685   1.853317  -1.853317  -1.853317   0.757087
  145  H  4  X    0.002130   0.000262  -0.001216  -0.000262  -0.007934
  146  H  4  Y    0.002130   0.001216  -0.000262  -0.000262  -0.008532
  147  H  4  Z   -0.002130  -0.000262   0.000262   0.001216   0.008532
  148  H  4  X   -0.010725  -0.020232   0.009266   0.020232   0.078865
  149  H  4  Y   -0.010725  -0.009266   0.020232   0.020232   0.061154
  150  H  4  Z    0.010725   0.020232  -0.020232  -0.009266  -0.061154
  151  H  4  X   -0.187007   0.106581  -0.074903  -0.106581   0.269037
  152  H  4  Y   -0.187007   0.074903  -0.106581  -0.106581   0.394545
  153  H  4  Z    0.187007  -0.106581   0.106581   0.074903  -0.394545
  154  H  4 XX    0.000000  -0.000157  -0.000314   0.000157   0.000345
  155  H  4 YY    0.000000   0.000314   0.000157   0.000157  -0.000173
  156  H  4 ZZ    0.000000  -0.000157   0.000157  -0.000314  -0.000173
  157  H  4 XY    0.001094  -0.001114   0.001114   0.001813   0.002049
  158  H  4 XZ   -0.001094   0.001813  -0.001114  -0.001114  -0.002049
  159  H  4 YZ   -0.001094   0.001114  -0.001813  -0.001114   0.003194
  160  H  4 XX    0.000000   0.000745   0.001491  -0.000745  -0.008975
  161  H  4 YY    0.000000  -0.001491  -0.000745  -0.000745   0.004488
  162  H  4 ZZ    0.000000   0.000745  -0.000745   0.001491   0.004488
  163  H  4 XY   -0.019738   0.003690  -0.003690  -0.010694   0.035132
  164  H  4 XZ    0.019738  -0.010694   0.003690   0.003690  -0.035132
  165  H  4 YZ    0.019738  -0.003690   0.010694   0.003690  -0.072777
  166  H  4 XXX   0.000708   0.000268   0.000100  -0.000268  -0.002960
  167  H  4 YYY   0.000708  -0.000100  -0.000268  -0.000268  -0.003199
  168  H  4 ZZZ  -0.000708  -0.000268   0.000268  -0.000100   0.003199
  169  H  4 XXY  -0.000475   0.000067   0.000737  -0.000378   0.001337
  170  H  4 XXZ   0.000475  -0.000378  -0.000737   0.000067  -0.001337
  171  H  4 YYX  -0.000475  -0.000737  -0.000067  -0.000378   0.001985
  172  H  4 YYZ   0.000475   0.000737   0.000378   0.000067  -0.002954
  173  H  4 ZZX  -0.000475   0.000378  -0.000067   0.000737   0.001985
  174  H  4 ZZY  -0.000475   0.000067  -0.000378   0.000737   0.002954
  175  H  4 XYZ   0.001736   0.000609  -0.000609  -0.000609  -0.005704
  176  H  5  S    0.000963  -0.003048   0.003048  -0.003048  -0.021162
  177  H  5  S   -0.025806  -0.019416   0.019416  -0.019416  -0.026686
  178  H  5  S   -0.727874  -0.265232   0.265232  -0.265232  -2.199662
  179  H  5  S   -1.196685  -1.853317   1.853317  -1.853317  -0.757087
  180  H  5  X   -0.002130   0.000262  -0.001216   0.000262  -0.007934
  181  H  5  Y   -0.002130   0.001216  -0.000262   0.000262  -0.008532
  182  H  5  Z   -0.002130   0.000262  -0.000262   0.001216  -0.008532
  183  H  5  X    0.010725  -0.020232   0.009266  -0.020232   0.078865
  184  H  5  Y    0.010725  -0.009266   0.020232  -0.020232   0.061154
  185  H  5  Z    0.010725  -0.020232   0.020232  -0.009266   0.061154
  186  H  5  X    0.187007   0.106581  -0.074903   0.106581   0.269037
  187  H  5  Y    0.187007   0.074903  -0.106581   0.106581   0.394545
  188  H  5  Z    0.187007   0.106581  -0.106581   0.074903   0.394545
  189  H  5 XX    0.000000   0.000157   0.000314   0.000157  -0.000345
  190  H  5 YY    0.000000  -0.000314  -0.000157   0.000157   0.000173
  191  H  5 ZZ    0.000000   0.000157  -0.000157  -0.000314   0.000173
  192  H  5 XY    0.001094   0.001114  -0.001114   0.001813  -0.002049
  193  H  5 XZ    0.001094   0.001813  -0.001114   0.001114  -0.002049
  194  H  5 YZ    0.001094   0.001114  -0.001813   0.001114   0.003194
  195  H  5 XX    0.000000  -0.000745  -0.001491  -0.000745   0.008975
  196  H  5 YY    0.000000   0.001491   0.000745  -0.000745  -0.004488
  197  H  5 ZZ    0.000000  -0.000745   0.000745   0.001491  -0.004488
  198  H  5 XY   -0.019738  -0.003690   0.003690  -0.010694  -0.035132
  199  H  5 XZ   -0.019738  -0.010694   0.003690  -0.003690  -0.035132
  200  H  5 YZ   -0.019738  -0.003690   0.010694  -0.003690  -0.072777
  201  H  5 XXX  -0.000708   0.000268   0.000100   0.000268  -0.002960
  202  H  5 YYY  -0.000708  -0.000100  -0.000268   0.000268  -0.003199
  203  H  5 ZZZ  -0.000708   0.000268  -0.000268  -0.000100  -0.003199
  204  H  5 XXY   0.000475   0.000067   0.000737   0.000378   0.001337
  205  H  5 XXZ   0.000475   0.000378   0.000737   0.000067   0.001337
  206  H  5 YYX   0.000475  -0.000737  -0.000067   0.000378   0.001985
  207  H  5 YYZ   0.000475  -0.000737  -0.000378   0.000067   0.002954
  208  H  5 ZZX   0.000475   0.000378  -0.000067  -0.000737   0.001985
  209  H  5 ZZY   0.000475   0.000067  -0.000378  -0.000737   0.002954
  210  H  5 XYZ   0.001736  -0.000609   0.000609  -0.000609   0.005704

                     11         12         13         14         15
                    0.1763     0.1763     0.3630     0.3786     0.3786
                     T2         T2         A1         T2         T2  
    1  C  1  S    0.000000   0.000000  -0.009429   0.000000   0.000000
    2  C  1  S    0.000000   0.000000  -0.243274   0.000000   0.000000
    3  C  1  S    0.000000   0.000000  -0.947616   0.000000   0.000000
    4  C  1  S    0.000000   0.000000   4.919560   0.000000   0.000000
    5  C  1  S    0.000000   0.000000  12.236750   0.000000   0.000000
    6  C  1  X    0.000000   0.000000   0.000000   0.000000  -0.123824
    7  C  1  Y   -0.041401   0.000000   0.000000  -0.123824   0.000000
    8  C  1  Z    0.000000  -0.041401   0.000000   0.000000   0.000000
    9  C  1  X    0.000000   0.000000   0.000000   0.000000  -0.244452
   10  C  1  Y    0.005200   0.000000   0.000000  -0.244452   0.000000
   11  C  1  Z    0.000000   0.005200   0.000000   0.000000   0.000000
   12  C  1  X    0.000000   0.000000   0.000000   0.000000   2.063039
   13  C  1  Y    1.974152   0.000000   0.000000   2.063039   0.000000
   14  C  1  Z    0.000000   1.974152   0.000000   0.000000   0.000000
   15  C  1  X    0.000000   0.000000   0.000000   0.000000   3.672598
   16  C  1  Y    2.954138   0.000000   0.000000   3.672598   0.000000
   17  C  1  Z    0.000000   2.954138   0.000000   0.000000   0.000000
   18  C  1 XX    0.000000   0.000000   0.000000   0.000000   0.000000
   19  C  1 YY    0.000000   0.000000   0.000000   0.000000   0.000000
   20  C  1 ZZ    0.000000   0.000000   0.000000   0.000000   0.000000
   21  C  1 XY    0.000000  -0.015542   0.000000   0.000000   0.000000
   22  C  1 XZ   -0.015542   0.000000   0.000000   0.011203   0.000000
   23  C  1 YZ    0.000000   0.000000   0.000000   0.000000   0.011203
   24  C  1 XX    0.000000   0.000000   0.000000   0.000000   0.000000
   25  C  1 YY    0.000000   0.000000   0.000000   0.000000   0.000000
   26  C  1 ZZ    0.000000   0.000000   0.000000   0.000000   0.000000
   27  C  1 XY    0.000000   0.176159   0.000000   0.000000   0.000000
   28  C  1 XZ    0.176159   0.000000   0.000000   0.136423   0.000000
   29  C  1 YZ    0.000000   0.000000   0.000000   0.000000   0.136423
   30  C  1 XX    0.000000   0.000000   0.000000   0.000000   0.000000
   31  C  1 YY    0.000000   0.000000   0.000000   0.000000   0.000000
   32  C  1 ZZ    0.000000   0.000000   0.000000   0.000000   0.000000
   33  C  1 XY    0.000000   0.865192   0.000000   0.000000   0.000000
   34  C  1 XZ    0.865192   0.000000   0.000000   1.326946   0.000000
   35  C  1 YZ    0.000000   0.000000   0.000000   0.000000   1.326946
   36  C  1 XXX   0.000000   0.000000   0.000000   0.000000  -0.003399
   37  C  1 YYY  -0.008949   0.000000   0.000000  -0.003399   0.000000
   38  C  1 ZZZ   0.000000  -0.008949   0.000000   0.000000   0.000000
   39  C  1 XXY   0.006003   0.000000   0.000000   0.002280   0.000000
   40  C  1 XXZ   0.000000   0.006003   0.000000   0.000000   0.000000
   41  C  1 YYX   0.000000   0.000000   0.000000   0.000000   0.002280
   42  C  1 YYZ   0.000000   0.006003   0.000000   0.000000   0.000000
   43  C  1 ZZX   0.000000   0.000000   0.000000   0.000000   0.002280
   44  C  1 ZZY   0.006003   0.000000   0.000000   0.002280   0.000000
   45  C  1 XYZ   0.000000   0.000000   0.017073   0.000000   0.000000
   46  C  1 XXX   0.000000   0.000000   0.000000   0.000000  -0.023997
   47  C  1 YYY  -0.053091   0.000000   0.000000  -0.023997   0.000000
   48  C  1 ZZZ   0.000000  -0.053091   0.000000   0.000000   0.000000
   49  C  1 XXY   0.035614   0.000000   0.000000   0.016098   0.000000
   50  C  1 XXZ   0.000000   0.035614   0.000000   0.000000   0.000000
   51  C  1 YYX   0.000000   0.000000   0.000000   0.000000   0.016098
   52  C  1 YYZ   0.000000   0.035614   0.000000   0.000000   0.000000
   53  C  1 ZZX   0.000000   0.000000   0.000000   0.000000   0.016098
   54  C  1 ZZY   0.035614   0.000000   0.000000   0.016098   0.000000
   55  C  1 XYZ   0.000000   0.000000   0.368959   0.000000   0.000000
   56  C  1XXXX   0.000000   0.000000  -0.024352   0.000000   0.000000
   57  C  1YYYY   0.000000   0.000000  -0.024352   0.000000   0.000000
   58  C  1ZZZZ   0.000000   0.000000  -0.024352   0.000000   0.000000
   59  C  1XXXY   0.000000  -0.006453   0.000000   0.000000   0.000000
   60  C  1XXXZ  -0.006453   0.000000   0.000000  -0.006478   0.000000
   61  C  1YYYX   0.000000  -0.006453   0.000000   0.000000   0.000000
   62  C  1YYYZ   0.000000   0.000000   0.000000   0.000000  -0.006478
   63  C  1ZZZX  -0.006453   0.000000   0.000000  -0.006478   0.000000
   64  C  1ZZZY   0.000000   0.000000   0.000000   0.000000  -0.006478
   65  C  1XXYY   0.000000   0.000000   0.021388   0.000000   0.000000
   66  C  1XXZZ   0.000000   0.000000   0.021388   0.000000   0.000000
   67  C  1YYZZ   0.000000   0.000000   0.021388   0.000000   0.000000
   68  C  1XXYZ   0.000000   0.000000   0.000000   0.000000   0.017383
   69  C  1YYXZ   0.017316   0.000000   0.000000   0.017383   0.000000
   70  C  1ZZXY   0.000000   0.017316   0.000000   0.000000   0.000000
   71  H  2  S    0.021162   0.021162   0.024733  -0.032889   0.032889
   72  H  2  S    0.026686   0.026686  -0.042874  -0.070316   0.070316
   73  H  2  S    2.199662   2.199662  -2.786727   1.675026  -1.675026
   74  H  2  S    0.757087   0.757087  -2.006983   2.436005  -2.436005
   75  H  2  X    0.008532   0.008532  -0.001608  -0.004944  -0.001978
   76  H  2  Y   -0.007934  -0.008532   0.001608  -0.001978  -0.004944
   77  H  2  Z   -0.008532  -0.007934   0.001608   0.004944  -0.004944
   78  H  2  X   -0.061154  -0.061154   0.087465  -0.012749   0.015035
   79  H  2  Y    0.078865   0.061154  -0.087465   0.015035  -0.012749
   80  H  2  Z    0.061154   0.078865  -0.087465   0.012749  -0.012749
   81  H  2  X   -0.394545  -0.394545   0.813753  -0.677399   0.402260
   82  H  2  Y    0.269037   0.394545  -0.813753   0.402260  -0.677399
   83  H  2  Z    0.394545   0.269037  -0.813753   0.677399  -0.677399
   84  H  2 XX   -0.000173  -0.000173   0.000000   0.000514   0.001028
   85  H  2 YY    0.000345  -0.000173   0.000000  -0.001028  -0.000514
   86  H  2 ZZ   -0.000173   0.000345   0.000000   0.000514  -0.000514
   87  H  2 XY   -0.002049   0.003194  -0.001657   0.001885  -0.001885
   88  H  2 XZ    0.003194  -0.002049  -0.001657   0.004967  -0.001885
   89  H  2 YZ    0.002049   0.002049   0.001657  -0.001885   0.004967
   90  H  2 XX    0.004488   0.004488   0.000000   0.010331   0.020663
   91  H  2 YY   -0.008975   0.004488   0.000000  -0.020663  -0.010331
   92  H  2 ZZ    0.004488  -0.008975   0.000000   0.010331  -0.010331
   93  H  2 XY   -0.035132  -0.072777   0.081334  -0.031530   0.031530
   94  H  2 XZ   -0.072777  -0.035132   0.081334  -0.072866   0.031530
   95  H  2 YZ    0.035132   0.035132  -0.081334   0.031530  -0.072866
   96  H  2 XXX   0.003199   0.003199  -0.003208   0.000655  -0.003077
   97  H  2 YYY  -0.002960  -0.003199   0.003208  -0.003077   0.000655
   98  H  2 ZZZ  -0.003199  -0.002960   0.003208  -0.000655   0.000655
   99  H  2 XXY   0.001985   0.002954  -0.002152   0.002064   0.002387
  100  H  2 XXZ   0.002954   0.001985  -0.002152   0.003266   0.002387
  101  H  2 YYX  -0.001337  -0.002954   0.002152   0.002387   0.002064
  102  H  2 YYZ   0.001337   0.001985  -0.002152  -0.002387  -0.003266
  103  H  2 ZZX  -0.002954  -0.001337   0.002152  -0.003266   0.002064
  104  H  2 ZZY   0.001985   0.001337  -0.002152   0.002064  -0.003266
  105  H  2 XYZ  -0.005704  -0.005704   0.006737  -0.001615   0.001615
  106  H  3  S   -0.021162   0.021162   0.024733   0.032889  -0.032889
  107  H  3  S   -0.026686   0.026686  -0.042874   0.070316  -0.070316
  108  H  3  S   -2.199662   2.199662  -2.786727  -1.675026   1.675026
  109  H  3  S   -0.757087   0.757087  -2.006983  -2.436005   2.436005
  110  H  3  X    0.008532  -0.008532   0.001608  -0.004944  -0.001978
  111  H  3  Y   -0.007934   0.008532  -0.001608  -0.001978  -0.004944
  112  H  3  Z    0.008532  -0.007934   0.001608  -0.004944   0.004944
  113  H  3  X   -0.061154   0.061154  -0.087465  -0.012749   0.015035
  114  H  3  Y    0.078865  -0.061154   0.087465   0.015035  -0.012749
  115  H  3  Z   -0.061154   0.078865  -0.087465  -0.012749   0.012749
  116  H  3  X   -0.394545   0.394545  -0.813753  -0.677399   0.402260
  117  H  3  Y    0.269037  -0.394545   0.813753   0.402260  -0.677399
  118  H  3  Z   -0.394545   0.269037  -0.813753  -0.677399   0.677399
  119  H  3 XX    0.000173  -0.000173   0.000000  -0.000514  -0.001028
  120  H  3 YY   -0.000345  -0.000173   0.000000   0.001028   0.000514
  121  H  3 ZZ    0.000173   0.000345   0.000000  -0.000514   0.000514
  122  H  3 XY    0.002049   0.003194  -0.001657  -0.001885   0.001885
  123  H  3 XZ    0.003194   0.002049   0.001657   0.004967  -0.001885
  124  H  3 YZ    0.002049  -0.002049  -0.001657  -0.001885   0.004967
  125  H  3 XX   -0.004488   0.004488   0.000000  -0.010331  -0.020663
  126  H  3 YY    0.008975   0.004488   0.000000   0.020663   0.010331
  127  H  3 ZZ   -0.004488  -0.008975   0.000000  -0.010331   0.010331
  128  H  3 XY    0.035132  -0.072777   0.081334   0.031530  -0.031530
  129  H  3 XZ   -0.072777   0.035132  -0.081334  -0.072866   0.031530
  130  H  3 YZ    0.035132  -0.035132   0.081334   0.031530  -0.072866
  131  H  3 XXX   0.003199  -0.003199   0.003208   0.000655  -0.003077
  132  H  3 YYY  -0.002960   0.003199  -0.003208  -0.003077   0.000655
  133  H  3 ZZZ   0.003199  -0.002960   0.003208   0.000655  -0.000655
  134  H  3 XXY   0.001985  -0.002954   0.002152   0.002064   0.002387
  135  H  3 XXZ  -0.002954   0.001985  -0.002152  -0.003266  -0.002387
  136  H  3 YYX  -0.001337   0.002954  -0.002152   0.002387   0.002064
  137  H  3 YYZ  -0.001337   0.001985  -0.002152   0.002387   0.003266
  138  H  3 ZZX  -0.002954   0.001337  -0.002152  -0.003266   0.002064
  139  H  3 ZZY   0.001985  -0.001337   0.002152   0.002064  -0.003266
  140  H  3 XYZ   0.005704  -0.005704   0.006737   0.001615  -0.001615
  141  H  4  S    0.021162  -0.021162   0.024733  -0.032889  -0.032889
  142  H  4  S    0.026686  -0.026686  -0.042874  -0.070316  -0.070316
  143  H  4  S    2.199662  -2.199662  -2.786727   1.675026   1.675026
  144  H  4  S    0.757087  -0.757087  -2.006983   2.436005   2.436005
  145  H  4  X   -0.008532   0.008532   0.001608   0.004944  -0.001978
  146  H  4  Y   -0.007934   0.008532   0.001608  -0.001978   0.004944
  147  H  4  Z    0.008532  -0.007934  -0.001608  -0.004944  -0.004944
  148  H  4  X    0.061154  -0.061154  -0.087465   0.012749   0.015035
  149  H  4  Y    0.078865  -0.061154  -0.087465   0.015035   0.012749
  150  H  4  Z   -0.061154   0.078865   0.087465  -0.012749  -0.012749
  151  H  4  X    0.394545  -0.394545  -0.813753   0.677399   0.402260
  152  H  4  Y    0.269037  -0.394545  -0.813753   0.402260   0.677399
  153  H  4  Z   -0.394545   0.269037   0.813753  -0.677399  -0.677399
  154  H  4 XX   -0.000173   0.000173   0.000000   0.000514  -0.001028
  155  H  4 YY    0.000345   0.000173   0.000000  -0.001028   0.000514
  156  H  4 ZZ   -0.000173  -0.000345   0.000000   0.000514   0.000514
  157  H  4 XY    0.002049   0.003194   0.001657  -0.001885  -0.001885
  158  H  4 XZ    0.003194   0.002049  -0.001657   0.004967   0.001885
  159  H  4 YZ   -0.002049   0.002049  -0.001657   0.001885   0.004967
  160  H  4 XX    0.004488  -0.004488   0.000000   0.010331  -0.020663
  161  H  4 YY   -0.008975  -0.004488   0.000000  -0.020663   0.010331
  162  H  4 ZZ    0.004488   0.008975   0.000000   0.010331   0.010331
  163  H  4 XY    0.035132  -0.072777  -0.081334   0.031530   0.031530
  164  H  4 XZ   -0.072777   0.035132   0.081334  -0.072866  -0.031530
  165  H  4 YZ   -0.035132   0.035132   0.081334  -0.031530  -0.072866
  166  H  4 XXX  -0.003199   0.003199   0.003208  -0.000655  -0.003077
  167  H  4 YYY  -0.002960   0.003199   0.003208  -0.003077  -0.000655
  168  H  4 ZZZ   0.003199  -0.002960  -0.003208   0.000655   0.000655
  169  H  4 XXY   0.001985  -0.002954  -0.002152   0.002064  -0.002387
  170  H  4 XXZ  -0.002954   0.001985   0.002152  -0.003266   0.002387
  171  H  4 YYX   0.001337  -0.002954  -0.002152  -0.002387   0.002064
  172  H  4 YYZ  -0.001337   0.001985   0.002152   0.002387  -0.003266
  173  H  4 ZZX   0.002954  -0.001337  -0.002152   0.003266   0.002064
  174  H  4 ZZY   0.001985  -0.001337  -0.002152   0.002064   0.003266
  175  H  4 XYZ  -0.005704   0.005704   0.006737  -0.001615  -0.001615
  176  H  5  S   -0.021162  -0.021162   0.024733   0.032889   0.032889
  177  H  5  S   -0.026686  -0.026686  -0.042874   0.070316   0.070316
  178  H  5  S   -2.199662  -2.199662  -2.786727  -1.675026  -1.675026
  179  H  5  S   -0.757087  -0.757087  -2.006983  -2.436005  -2.436005
  180  H  5  X   -0.008532  -0.008532  -0.001608   0.004944  -0.001978
  181  H  5  Y   -0.007934  -0.008532  -0.001608  -0.001978   0.004944
  182  H  5  Z   -0.008532  -0.007934  -0.001608   0.004944   0.004944
  183  H  5  X    0.061154   0.061154   0.087465   0.012749   0.015035
  184  H  5  Y    0.078865   0.061154   0.087465   0.015035   0.012749
  185  H  5  Z    0.061154   0.078865   0.087465   0.012749   0.012749
  186  H  5  X    0.394545   0.394545   0.813753   0.677399   0.402260
  187  H  5  Y    0.269037   0.394545   0.813753   0.402260   0.677399
  188  H  5  Z    0.394545   0.269037   0.813753   0.677399   0.677399
  189  H  5 XX    0.000173   0.000173   0.000000  -0.000514   0.001028
  190  H  5 YY   -0.000345   0.000173   0.000000   0.001028  -0.000514
  191  H  5 ZZ    0.000173  -0.000345   0.000000  -0.000514  -0.000514
  192  H  5 XY   -0.002049   0.003194   0.001657   0.001885   0.001885
  193  H  5 XZ    0.003194  -0.002049   0.001657   0.004967   0.001885
  194  H  5 YZ   -0.002049  -0.002049   0.001657   0.001885   0.004967
  195  H  5 XX   -0.004488  -0.004488   0.000000  -0.010331   0.020663
  196  H  5 YY    0.008975  -0.004488   0.000000   0.020663  -0.010331
  197  H  5 ZZ   -0.004488   0.008975   0.000000  -0.010331  -0.010331
  198  H  5 XY   -0.035132  -0.072777  -0.081334  -0.031530  -0.031530
  199  H  5 XZ   -0.072777  -0.035132  -0.081334  -0.072866  -0.031530
  200  H  5 YZ   -0.035132  -0.035132  -0.081334  -0.031530  -0.072866
  201  H  5 XXX  -0.003199  -0.003199  -0.003208  -0.000655  -0.003077
  202  H  5 YYY  -0.002960  -0.003199  -0.003208  -0.003077  -0.000655
  203  H  5 ZZZ  -0.003199  -0.002960  -0.003208  -0.000655  -0.000655
  204  H  5 XXY   0.001985   0.002954   0.002152   0.002064  -0.002387
  205  H  5 XXZ   0.002954   0.001985   0.002152   0.003266  -0.002387
  206  H  5 YYX   0.001337   0.002954   0.002152  -0.002387   0.002064
  207  H  5 YYZ   0.001337   0.001985   0.002152  -0.002387   0.003266
  208  H  5 ZZX   0.002954   0.001337   0.002152   0.003266   0.002064
  209  H  5 ZZY   0.001985   0.001337   0.002152   0.002064   0.003266
  210  H  5 XYZ   0.005704   0.005704   0.006737   0.001615   0.001615

                     16         17         18         19         20
                    0.3786     0.3860     0.3860     0.4753     0.6712
                     T2         E          E          A1         T1  
    1  C  1  S    0.000000   0.000000   0.000000  -0.009376   0.000000
    2  C  1  S    0.000000   0.000000   0.000000   0.042972   0.000000
    3  C  1  S    0.000000   0.000000   0.000000  -0.681614   0.000000
    4  C  1  S    0.000000   0.000000   0.000000   3.828023   0.000000
    5  C  1  S    0.000000   0.000000   0.000000   9.286572   0.000000
    6  C  1  X    0.000000   0.000000   0.000000   0.000000   0.000000
    7  C  1  Y    0.000000   0.000000   0.000000   0.000000   0.000000
    8  C  1  Z   -0.123824   0.000000   0.000000   0.000000   0.000000
    9  C  1  X    0.000000   0.000000   0.000000   0.000000   0.000000
   10  C  1  Y    0.000000   0.000000   0.000000   0.000000   0.000000
   11  C  1  Z   -0.244452   0.000000   0.000000   0.000000   0.000000
   12  C  1  X    0.000000   0.000000   0.000000   0.000000   0.000000
   13  C  1  Y    0.000000   0.000000   0.000000   0.000000   0.000000
   14  C  1  Z    2.063039   0.000000   0.000000   0.000000   0.000000
   15  C  1  X    0.000000   0.000000   0.000000   0.000000   0.000000
   16  C  1  Y    0.000000   0.000000   0.000000   0.000000   0.000000
   17  C  1  Z    3.672598   0.000000   0.000000   0.000000   0.000000
   18  C  1 XX    0.000000   0.017877   0.030963   0.000000   0.000000
   19  C  1 YY    0.000000   0.017877  -0.030963   0.000000   0.000000
   20  C  1 ZZ    0.000000  -0.035753   0.000000   0.000000   0.000000
   21  C  1 XY    0.011203   0.000000   0.000000   0.000000   0.000000
   22  C  1 XZ    0.000000   0.000000   0.000000   0.000000   0.000000
   23  C  1 YZ    0.000000   0.000000   0.000000   0.000000   0.000000
   24  C  1 XX    0.000000  -0.037593  -0.065114   0.000000   0.000000
   25  C  1 YY    0.000000  -0.037593   0.065114   0.000000   0.000000
   26  C  1 ZZ    0.000000   0.075187   0.000000   0.000000   0.000000
   27  C  1 XY    0.136423   0.000000   0.000000   0.000000   0.000000
   28  C  1 XZ    0.000000   0.000000   0.000000   0.000000   0.000000
   29  C  1 YZ    0.000000   0.000000   0.000000   0.000000   0.000000
   30  C  1 XX    0.000000   0.048337   0.083721   0.000000   0.000000
   31  C  1 YY    0.000000   0.048337  -0.083721   0.000000   0.000000
   32  C  1 ZZ    0.000000  -0.096673   0.000000   0.000000   0.000000
   33  C  1 XY    1.326946   0.000000   0.000000   0.000000   0.000000
   34  C  1 XZ    0.000000   0.000000   0.000000   0.000000   0.000000
   35  C  1 YZ    0.000000   0.000000   0.000000   0.000000   0.000000
   36  C  1 XXX   0.000000   0.000000   0.000000   0.000000   0.000000
   37  C  1 YYY   0.000000   0.000000   0.000000   0.000000   0.000000
   38  C  1 ZZZ  -0.003399   0.000000   0.000000   0.000000   0.000000
   39  C  1 XXY   0.000000   0.000000   0.000000   0.000000   0.000000
   40  C  1 XXZ   0.002280   0.000000   0.000000   0.000000   0.000000
   41  C  1 YYX   0.000000   0.000000   0.000000   0.000000  -0.005924
   42  C  1 YYZ   0.002280   0.000000   0.000000   0.000000   0.000000
   43  C  1 ZZX   0.000000   0.000000   0.000000   0.000000   0.005924
   44  C  1 ZZY   0.000000   0.000000   0.000000   0.000000   0.000000
   45  C  1 XYZ   0.000000   0.000000   0.000000   0.015373   0.000000
   46  C  1 XXX   0.000000   0.000000   0.000000   0.000000   0.000000
   47  C  1 YYY   0.000000   0.000000   0.000000   0.000000   0.000000
   48  C  1 ZZZ  -0.023997   0.000000   0.000000   0.000000   0.000000
   49  C  1 XXY   0.000000   0.000000   0.000000   0.000000   0.000000
   50  C  1 XXZ   0.016098   0.000000   0.000000   0.000000   0.000000
   51  C  1 YYX   0.000000   0.000000   0.000000   0.000000   0.421191
   52  C  1 YYZ   0.016098   0.000000   0.000000   0.000000   0.000000
   53  C  1 ZZX   0.000000   0.000000   0.000000   0.000000  -0.421191
   54  C  1 ZZY   0.000000   0.000000   0.000000   0.000000   0.000000
   55  C  1 XYZ   0.000000   0.000000   0.000000   0.420332   0.000000
   56  C  1XXXX   0.000000  -0.000917  -0.001589  -0.034491   0.000000
   57  C  1YYYY   0.000000  -0.000917   0.001589  -0.034491   0.000000
   58  C  1ZZZZ   0.000000   0.001835   0.000000  -0.034491   0.000000
   59  C  1XXXY  -0.006478   0.000000   0.000000   0.000000   0.000000
   60  C  1XXXZ   0.000000   0.000000   0.000000   0.000000   0.000000
   61  C  1YYYX  -0.006478   0.000000   0.000000   0.000000   0.000000
   62  C  1YYYZ   0.000000   0.000000   0.000000   0.000000   0.064114
   63  C  1ZZZX   0.000000   0.000000   0.000000   0.000000   0.000000
   64  C  1ZZZY   0.000000   0.000000   0.000000   0.000000  -0.064114
   65  C  1XXYY   0.000000   0.003223   0.000000   0.030294   0.000000
   66  C  1XXZZ   0.000000  -0.001611   0.002791   0.030294   0.000000
   67  C  1YYZZ   0.000000  -0.001611  -0.002791   0.030294   0.000000
   68  C  1XXYZ   0.000000   0.000000   0.000000   0.000000   0.000000
   69  C  1YYXZ   0.000000   0.000000   0.000000   0.000000   0.000000
   70  C  1ZZXY   0.017383   0.000000   0.000000   0.000000   0.000000
   71  H  2  S   -0.032889   0.000000   0.000000  -0.030469   0.000000
   72  H  2  S   -0.070316   0.000000   0.000000  -0.177544   0.000000
   73  H  2  S    1.675026   0.000000   0.000000  -3.126147   0.000000
   74  H  2  S    2.436005   0.000000   0.000000  -0.879551   0.000000
   75  H  2  X   -0.004944   0.009601   0.016630  -0.015835   0.000000
   76  H  2  Y    0.004944  -0.009601   0.016630   0.015835   0.013157
   77  H  2  Z   -0.001978   0.019203   0.000000   0.015835  -0.013157
   78  H  2  X   -0.012749  -0.026307  -0.045564   0.135891   0.000000
   79  H  2  Y    0.012749   0.026307  -0.045564  -0.135891  -0.003910
   80  H  2  Z    0.015035  -0.052613   0.000000  -0.135891   0.003910
   81  H  2  X   -0.677399   0.194875   0.337533   0.323057   0.000000
   82  H  2  Y    0.677399  -0.194875   0.337533  -0.323057   0.711935
   83  H  2  Z    0.402260   0.389749   0.000000  -0.323057  -0.711935
   84  H  2 XX    0.000514  -0.000535  -0.000927   0.000000   0.000000
   85  H  2 YY    0.000514  -0.000535   0.000927   0.000000  -0.006069
   86  H  2 ZZ   -0.001028   0.001071   0.000000   0.000000   0.006069
   87  H  2 XY    0.004967  -0.000250   0.000000   0.003846  -0.000646
   88  H  2 XZ    0.001885   0.000125  -0.000217   0.003846   0.000646
   89  H  2 YZ   -0.001885  -0.000125  -0.000217  -0.003846   0.000000
   90  H  2 XX    0.010331  -0.005642  -0.009772   0.000000   0.000000
   91  H  2 YY    0.010331  -0.005642   0.009772   0.000000   0.137412
   92  H  2 ZZ   -0.020663   0.011283   0.000000   0.000000  -0.137412
   93  H  2 XY   -0.072866   0.019444   0.000000   0.048518  -0.044452
   94  H  2 XZ   -0.031530  -0.009722   0.016839   0.048518   0.044452
   95  H  2 YZ    0.031530   0.009722   0.016839  -0.048518   0.000000
   96  H  2 XXX   0.000655   0.000891   0.001543  -0.003287   0.000000
   97  H  2 YYY  -0.000655  -0.000891   0.001543   0.003287   0.009786
   98  H  2 ZZZ  -0.003077   0.001781   0.000000   0.003287  -0.009786
   99  H  2 XXY   0.003266  -0.004603  -0.004038  -0.002205  -0.001076
  100  H  2 XXZ   0.002064  -0.001195  -0.006006  -0.002205   0.001076
  101  H  2 YYX  -0.003266   0.004603  -0.004038   0.002205  -0.019176
  102  H  2 YYZ   0.002064  -0.001195   0.006006  -0.002205   0.012053
  103  H  2 ZZX   0.002387  -0.005798   0.001968   0.002205   0.019176
  104  H  2 ZZY  -0.002387   0.005798   0.001968  -0.002205  -0.012053
  105  H  2 XYZ  -0.001615   0.000000   0.000000   0.001808   0.000000
  106  H  3  S   -0.032889   0.000000   0.000000  -0.030469   0.000000
  107  H  3  S   -0.070316   0.000000   0.000000  -0.177544   0.000000
  108  H  3  S    1.675026   0.000000   0.000000  -3.126147   0.000000
  109  H  3  S    2.436005   0.000000   0.000000  -0.879551   0.000000
  110  H  3  X    0.004944  -0.009601  -0.016630   0.015835   0.000000
  111  H  3  Y   -0.004944   0.009601  -0.016630  -0.015835   0.013157
  112  H  3  Z   -0.001978   0.019203   0.000000   0.015835   0.013157
  113  H  3  X    0.012749   0.026307   0.045564  -0.135891   0.000000
  114  H  3  Y   -0.012749  -0.026307   0.045564   0.135891  -0.003910
  115  H  3  Z    0.015035  -0.052613   0.000000  -0.135891  -0.003910
  116  H  3  X    0.677399  -0.194875  -0.337533  -0.323057   0.000000
  117  H  3  Y   -0.677399   0.194875  -0.337533   0.323057   0.711935
  118  H  3  Z    0.402260   0.389749   0.000000  -0.323057   0.711935
  119  H  3 XX    0.000514  -0.000535  -0.000927   0.000000   0.000000
  120  H  3 YY    0.000514  -0.000535   0.000927   0.000000   0.006069
  121  H  3 ZZ   -0.001028   0.001071   0.000000   0.000000  -0.006069
  122  H  3 XY    0.004967  -0.000250   0.000000   0.003846   0.000646
  123  H  3 XZ   -0.001885  -0.000125   0.000217  -0.003846   0.000646
  124  H  3 YZ    0.001885   0.000125   0.000217   0.003846   0.000000
  125  H  3 XX    0.010331  -0.005642  -0.009772   0.000000   0.000000
  126  H  3 YY    0.010331  -0.005642   0.009772   0.000000  -0.137412
  127  H  3 ZZ   -0.020663   0.011283   0.000000   0.000000   0.137412
  128  H  3 XY   -0.072866   0.019444   0.000000   0.048518   0.044452
  129  H  3 XZ    0.031530   0.009722  -0.016839  -0.048518   0.044452
  130  H  3 YZ   -0.031530  -0.009722  -0.016839   0.048518   0.000000
  131  H  3 XXX  -0.000655  -0.000891  -0.001543   0.003287   0.000000
  132  H  3 YYY   0.000655   0.000891  -0.001543  -0.003287   0.009786
  133  H  3 ZZZ  -0.003077   0.001781   0.000000   0.003287   0.009786
  134  H  3 XXY  -0.003266   0.004603   0.004038   0.002205  -0.001076
[...]

                                                                                   NONZERO     BLOCKS
 ITER EX DEM     TOTAL ENERGY        E CHANGE  DENSITY CHANGE    DIIS ERROR      INTEGRALS    SKIPPED
          * * *   INITIATING DIIS PROCEDURE   * * *
   1  0  0      -40.5056092341   -40.5056092341   0.013291757   0.003074193      234260739       4978
   2  1  0      -40.5056228619    -0.0000136278   0.000360535   0.000171294      232986837      19632
   3  2  0      -40.5056229701    -0.0000001082   0.000038045   0.000084577      226231064      50472
 DFT CODE IS SWITCHING BACK TO THE FINE GRID
          * * *   INITIATING DIIS PROCEDURE   * * *
   4  3  0      -40.5055233673     0.0000996028   0.011732977   0.003003740      234244787       5101
   5  4  0      -40.5055356674    -0.0000123001   0.000357100   0.000149457      232966841      20133
   6  5  0      -40.5055356990    -0.0000000316   0.000092862   0.000219851      226051990      51218
   7  6  0      -40.5055357960    -0.0000000970   0.000010395   0.000022889      210541316      93288
   8  7  0      -40.5055357974    -0.0000000014   0.000001202   0.000001118      195922140     126788

          -----------------
          DENSITY CONVERGED
          -----------------
     TIME TO FORM FOCK OPERATORS=      44.9 SECONDS (       5.6 SEC/ITER)
     FOCK TIME ON FIRST ITERATION=       4.6, LAST ITERATION=       5.8
     TIME TO SOLVE SCF EQUATIONS=       0.2 SECONDS (       0.0 SEC/ITER)

 FINAL R-B3LYP ENERGY IS      -40.5055357974 AFTER   8 ITERATIONS
 DFT EXCHANGE + CORRELATION ENERGY =        -5.5628733120
 TOTAL ELECTRON NUMBER             =        10.0000314533
 ...... END OF RHF CALCULATION ......
 STEP CPU TIME =    45.12 TOTAL CPU TIME =        730.5 (     12.2 MIN)
 TOTAL WALL CLOCK TIME=        732.3 SECONDS, CPU UTILIZATION IS    99.76%
 ..... END OF 1-ELECTRON GRADIENT ......
 STEP CPU TIME =     0.02 TOTAL CPU TIME =        730.6 (     12.2 MIN)
 TOTAL WALL CLOCK TIME=        732.3 SECONDS, CPU UTILIZATION IS    99.76%
 MEMORY FOR GRID POINT CONTRIBUTIONS TO THE DFT GRADIENT=    564693 WORDS.
 STEP CPU TIME =     3.64 TOTAL CPU TIME =        734.2 (     12.2 MIN)
 TOTAL WALL CLOCK TIME=        736.0 SECONDS, CPU UTILIZATION IS    99.76%
 ...... END OF 2-ELECTRON GRADIENT ......
 STEP CPU TIME =     5.69 TOTAL CPU TIME =        739.9 (     12.3 MIN)
 TOTAL WALL CLOCK TIME=        741.6 SECONDS, CPU UTILIZATION IS    99.77%

 UNITS ARE HARTREE/BOHR    E'X               E'Y               E'Z 
    1 C                0.000907823       0.000907645       0.001354197
    2 H                0.000110140       0.000094562       0.000110726
    3 H                0.000094531       0.000110171       0.000110752
    4 H               -0.000110417      -0.000110360      -0.000133490
    5 H               -0.001002077      -0.001002019      -0.001442186
  $VIB   
          IVIB=   2 IATOM=   5 ICOORD=   3 E=      -40.5055357974
  9.078234676E-04 9.076454682E-04 1.354197479E-03 1.101400039E-04 9.456205121E-05
  1.107258971E-04 9.453072045E-05 1.101712119E-04 1.107521151E-04-1.104173992E-04
 -1.103596075E-04-1.334896215E-04-1.002076793E-03-1.002019124E-03-1.442185869E-03
  1.706685398E-03 1.718357565E-03 5.963049387E-05
 ...... END OF NUMERICAL HESSIAN CALCULATION ......
 STEP CPU TIME =     0.02 TOTAL CPU TIME =        739.9 (     12.3 MIN)
 TOTAL WALL CLOCK TIME=        741.7 SECONDS, CPU UTILIZATION IS    99.76%

          ---------------
          ENERGY GRADIENT
          ---------------

 UNITS ARE HARTREE/BOHR    E'X               E'Y               E'Z 
    1 C                0.000000000       0.000000000       0.000000000
    2 H               -0.000003296       0.000003296       0.000003296
    3 H                0.000003296      -0.000003296       0.000003296
    4 H                0.000003296       0.000003296      -0.000003296
    5 H               -0.000003296      -0.000003296      -0.000003296

          -------------------------------
          CARTESIAN FORCE CONSTANT MATRIX
          -------------------------------

                                   1                          2
                               C                          H         
                          X        Y        Z        X        Y        Z
  1   C            X 0.540425 0.000001-0.000001-0.135107 0.089794 0.089793
                   Y 0.000001 0.540426-0.000000 0.089794-0.135108-0.089794
                   Z-0.000001-0.000000 0.540427 0.089795-0.089795-0.135109
  2   H            X-0.135107 0.089794 0.089795 0.143579-0.098901-0.098900
                   Y 0.089794-0.135108-0.089795-0.098901 0.143580 0.098900
                   Z 0.089793-0.089794-0.135109-0.098900 0.098900 0.143579
  3   H            X-0.135107 0.089794-0.089795-0.010742 0.009106-0.011284
                   Y 0.089794-0.135108 0.089795 0.009106-0.010742 0.011284
                   Z-0.089793 0.089794-0.135109 0.011284-0.011284 0.013016
  4   H            X-0.135108-0.089794 0.089795-0.010742-0.011285 0.009105
                   Y-0.089794-0.135109 0.089795 0.011285 0.013015-0.011285
                   Z 0.089794 0.089794-0.135109 0.009105 0.011285-0.010742
  5   H            X-0.135108-0.089794-0.089795 0.013015 0.011285 0.011285
                   Y-0.089793-0.135109-0.089795-0.011285-0.010742-0.009105
                   Z-0.089793-0.089794-0.135109-0.011285-0.009105-0.010741

                                   3                          4
                               H                          H         
                          X        Y        Z        X        Y        Z
  3   H            X 0.143579-0.098901 0.098900 0.013015-0.011285 0.011285
                   Y-0.098901 0.143580-0.098900 0.011285-0.010742 0.009105
                   Z 0.098900-0.098900 0.143579-0.011285 0.009105-0.010741
  4   H            X 0.013015 0.011285-0.011285 0.143579 0.098901-0.098900
                   Y-0.011285-0.010742 0.009105 0.098901 0.143580-0.098900
                   Z 0.011285 0.009105-0.010741-0.098900-0.098900 0.143579
  5   H            X-0.010742-0.011285-0.009105-0.010742-0.009106-0.011284
                   Y 0.011285 0.013015 0.011285-0.009106-0.010742-0.011284
                   Z-0.009105-0.011285-0.010742 0.011284 0.011284 0.013016

                                   5
                               H         
                          X        Y        Z
  5   H            X 0.143579 0.098901 0.098900
                   Y 0.098901 0.143580 0.098900
                   Z 0.098900 0.098900 0.143579

          ------------------------          ----------------
          DIPOLE DERIVATIVE TENSOR          (DEBYE/ANGSTROM)
          ------------------------          ----------------

        ATOM                 MU-X           MU-Y           MU-Z
     C          D/DX     0.035914541    0.000001133    0.000023166
                D/DY     0.000001208    0.035931720    0.000002937
                D/DZ    -0.000022062    0.000003309    0.035942020
     H          D/DX    -0.008826801    0.324559563    0.324555938
                D/DY     0.324551702   -0.008822658   -0.324561219
                D/DZ     0.324558431   -0.324553658   -0.008816214
     H          D/DX    -0.008826801    0.324559563   -0.324555938
                D/DY     0.324551702   -0.008822658    0.324561219
                D/DZ    -0.324558431    0.324553658   -0.008816214
     H          D/DX    -0.008826801   -0.324559563    0.324555938
                D/DY    -0.324551702   -0.008822658    0.324561219
                D/DZ     0.324558431    0.324553658   -0.008816214
     H          D/DX    -0.008826801   -0.324559563   -0.324555938
                D/DY    -0.324551702   -0.008822658   -0.324561219
                D/DZ    -0.324558431   -0.324553658   -0.008816214

          --------------------------------------------------------
          NORMAL COORDINATE ANALYSIS IN THE HARMONIC APPROXIMATION
          --------------------------------------------------------

          ATOMIC WEIGHTS (AMU)

    1     C                12.00000
    2     H                 1.00782
    3     H                 1.00782
    4     H                 1.00782
    5     H                 1.00782

 MODES    1 TO    6 ARE TAKEN AS ROTATIONS AND TRANSLATIONS.

 ANALYZING SYMMETRY OF NORMAL MODES...
 WATCH OUT!! THE COUNTING OF DEGENERATE MODES COUNTS INDIVIDUAL MODES,
 E.G. 2*E MEANS ONE (1) SET OF DEGENERATE E MODES

 --- SYMMETRY FOR NORMAL MODES ---
 INCLUDING TRANSLATION AND ROTATION
    1*A1     0*A2     2*E      3*T1     9*T2  
 EXCLUDING TRANSLATION AND ROTATION (SAYVETZ < 0.01)
    1*A1     0*A2     2*E      0*T1     6*T2  

     FREQUENCIES IN CM**-1, IR INTENSITIES IN DEBYE**2/AMU-ANGSTROM**2,
     REDUCED MASSES IN AMU.

                            1           2           3           4           5
       FREQUENCY:        16.98       16.96       16.94        0.84        0.02  
        SYMMETRY:         T1          T1          T1          T2          T2  
    REDUCED MASS:      1.00783     1.00783     1.00783     3.20631     3.20634
    IR INTENSITY:      0.00000     0.00000     0.00000     0.00000     0.00000

  1   C            X  0.00017089  0.00030110  0.00000073  0.17660080 -0.00000931
                   Y -0.00000042  0.00000062  0.00030709  0.16527667  0.08803172
                   Z -0.00000015  0.00000151 -0.00016081 -0.06224298  0.23372865
  2   H            X -0.35214044 -0.35174341  0.00000096  0.17706788 -0.00000895
                   Y -0.35217769  0.00013402 -0.35186941  0.16578643  0.08797111
                   Z -0.00013296 -0.35217719  0.35201843 -0.06228504  0.23378491
  3   H            X  0.35221703 -0.35200912  0.00000125  0.17672723 -0.00000602
                   Y  0.35217713 -0.00013170 -0.35186908  0.16544726  0.08796988
                   Z  0.00013249  0.35218021 -0.35233999 -0.06219793  0.23366117
  4   H            X -0.35187530  0.35261122  0.00000140  0.17646879 -0.00001312
                   Y  0.35217685 -0.00013207  0.35248348  0.16476121  0.08808966
                   Z  0.00013217  0.35217977  0.35201880 -0.06288730  0.23378033
  5   H            X  0.35248216  0.35234551  0.00000169  0.17612765 -0.00001037
                   Y -0.35217797  0.00013364  0.35248316  0.16509974  0.08809055
                   Z -0.00013264 -0.35217675 -0.35234036 -0.06159573  0.23366671

 TRANS. SAYVETZ    X  0.00273948  0.00482680  0.00001411  2.83112868 -0.00015043
                   Y -0.00000675  0.00001132  0.00492283  2.64958772  1.41125725
                   Z -0.00000275  0.00002423 -0.00257785 -0.99782997  3.74695243
               TOTAL  0.00273949  0.00482688  0.00555696  4.00390676  4.00391053

   ROT. SAYVETZ    X  0.00000145  0.00000196 -3.37030823  0.00329135 -0.00057009
                   Y  0.00126864  3.37030879  0.00000195 -0.00287474 -0.00002230
                   Z -3.37031045  0.00127142 -0.00000145  0.00162627 -0.00000426
               TOTAL  3.37031069  3.37030903  3.37030823  0.00466282  0.00057054

                            6           7           8           9          10
       FREQUENCY:         0.85     1341.17     1341.18     1341.18     1558.52  
        SYMMETRY:         T2          T2          T2          T2          E   
    REDUCED MASS:      3.20630     1.17968     1.17967     1.17968     1.00783
    IR INTENSITY:      0.00000     0.28960     0.28961     0.28959     0.00000

  1   C            X  0.17660829 -0.02720688 -0.03434174 -0.10645753 -0.00000006
                   Y -0.16526479 -0.11151233 -0.00029383  0.02859415  0.00000013
                   Z  0.06225274  0.00880145 -0.10987788  0.03319578  0.00000006
  2   H            X  0.17707657  0.27148687  0.30656165  0.20229796  0.40548869
                   Y -0.16543342  0.39873172 -0.13922295  0.17389674  0.17604189
                   Z  0.06289302 -0.18256008  0.39023168  0.15165938  0.22944949
  3   H            X  0.17673580  0.30413470 -0.10101768  0.32543391 -0.40548885
                   Y -0.16577568  0.36608339  0.26835869  0.05076117 -0.17604198
                   Z  0.06160931  0.13015997  0.26393663 -0.34929245  0.22944914
  4   H            X  0.17647572 -0.14215632  0.30547166  0.30836365 -0.40548872
                   Y -0.16509040  0.26516160  0.14097147 -0.34413101  0.17604167
                   Z  0.06229319  0.23108045  0.39132087  0.04559459 -0.22944948
  5   H            X  0.17613521 -0.10950769 -0.10210755  0.43149912  0.40548905
                   Y -0.16474908  0.29780997 -0.26660883 -0.22099427 -0.17604197
                   Z  0.06220924 -0.28348106  0.26284589 -0.24322762 -0.22944934

 TRANS. SAYVETZ    X  2.83125053  0.00000996  0.00000692  0.00002317 -0.00000051
                   Y -2.64939874  0.00002866 -0.00000027 -0.00000177  0.00000119
                   Z  0.99798608 -0.00000335  0.00003830 -0.00000973  0.00000055
               TOTAL  4.00390677  0.00003053  0.00003892  0.00002520  0.00000141

   ROT. SAYVETZ    X -0.00327444  0.00000248  0.00000367  0.00001093  0.00000000
                   Y -0.00287242 -0.00000480  0.00000008  0.00000153  0.00000000
                   Z  0.00163270  0.00000028 -0.00000408  0.00000106  0.00000000
               TOTAL  0.00465171  0.00000541  0.00000549  0.00001109  0.00000000

                           11          12          13          14          15
       FREQUENCY:      1558.53     3024.78     3127.41     3127.41     3127.43  
        SYMMETRY:         E           A1          T2          T2          T2  
    REDUCED MASS:      1.00783     1.00783     1.10104     1.10104     1.10104
    IR INTENSITY:      0.00000     0.00000     0.54697     0.54697     0.54697

  1   C            X  0.00000019 -0.00000005  0.08755741  0.00593144 -0.00079051
                   Y  0.00000001 -0.00000001 -0.00593984  0.08755493 -0.00098395
                   Z  0.00000021  0.00000002  0.00072203  0.00103506  0.08775232
  2   H            X -0.03083602  0.28755397 -0.27728693  0.26506271  0.27925824
                   Y -0.36658087 -0.28755360  0.29480142 -0.24500300 -0.27963990
                   Z  0.33574745 -0.28755132  0.29622886 -0.26356727 -0.26059875
  3   H            X  0.03083573 -0.28755317 -0.28189634  0.25845601 -0.28083232
                   Y  0.36658051  0.28755265  0.29941089 -0.23839631  0.28045266
                   Z  0.33574777 -0.28755040 -0.30052841  0.25740476 -0.26183374
  4   H            X  0.03083536 -0.28755247 -0.23937514 -0.29376786  0.28553826
                   Y -0.36658091 -0.28755197 -0.25943879 -0.27625377  0.28549770
                   Z -0.33574810  0.28754975  0.25831713  0.29526192 -0.26687881
  5   H            X -0.03083562  0.28755368 -0.24398249 -0.30037399 -0.27455325
                   Y  0.36658123  0.28755328 -0.26404608 -0.28285996 -0.27459576
                   Z -0.33574773  0.28755108 -0.26261465 -0.30142395 -0.25555474

 TRANS. SAYVETZ    X  0.00000167  0.00000145 -0.00000986  0.00000151 -0.00000155
                   Y  0.00000011  0.00000026  0.00000277 -0.00001150 -0.00000107
                   Z  0.00000187 -0.00000065 -0.00000001 -0.00000023 -0.00001433
               TOTAL  0.00000251  0.00000161  0.00001024  0.00001160  0.00001445

   ROT. SAYVETZ    X -0.00000000 -0.00000000  0.00000972  0.00000070 -0.00000011
                   Y -0.00000000  0.00000000  0.00000017 -0.00000319  0.00000004
                   Z  0.00000000 -0.00000000 -0.00000002 -0.00000005 -0.00000473
               TOTAL  0.00000000  0.00000000  0.00000972  0.00000327  0.00000473

 REFERENCE ON SAYVETZ CONDITIONS - A. SAYVETZ, J.CHEM.PHYS., 7, 383-389(1939).

 NOTE - THE MODES J,K ARE ORTHONORMALIZED ACCORDING TO
 SUM ON I   M(I) * (X(I,J)*X(I,K) + Y(I,J)*Y(I,K) + Z(I,J)*Z(I,K)) = DELTA(J,K)

  MODE FREQ(CM**-1)  SYMMETRY  RED. MASS  IR INTENS.
     1      16.982    T1       1.007825    0.000000
     2      16.963    T1       1.007826    0.000000
     3      16.942    T1       1.007826    0.000000
     4       0.845    T2       3.206309    0.000000
     5       0.017    T2       3.206338    0.000000
     6       0.845    T2       3.206301    0.000000
     7    1341.174    T2       1.179675    0.289600
     8    1341.176    T2       1.179674    0.289609
     9    1341.177    T2       1.179677    0.289594
    10    1558.522    E        1.007825    0.000000
    11    1558.528    E        1.007825    0.000000
    12    3024.781    A1       1.007825    0.000000
    13    3127.406    T2       1.101042    0.546969
    14    3127.414    T2       1.101043    0.546969
    15    3127.430    T2       1.101042    0.546968

     -------------------------------
     THERMOCHEMISTRY AT T=  298.15 K
     -------------------------------

 USING IDEAL GAS, RIGID ROTOR, HARMONIC NORMAL MODE APPROXIMATIONS.
 P=  1.01325E+05 PASCAL.
 ALL FREQUENCIES ARE SCALED BY   1.00000
 THE MOMENTS OF INERTIA ARE (IN AMU*BOHR**2)
             11.35900            11.35900            11.35900
 THE ROTATIONAL SYMMETRY NUMBER IS 12.0
 THE ROTATIONAL CONSTANTS ARE (IN GHZ)
    158.73654   158.73654   158.73654
      7 -     15 VIBRATIONAL MODES ARE USED IN THERMOCHEMISTRY.
 THE HARMONIC ZERO POINT ENERGY IS (SCALED BY   1.000)
        0.044533 HARTREE/MOLECULE     9773.803968 CM**-1/MOLECULE 
       27.944736 KCAL/MOL              116.920775 KJ/MOL

               Q               LN Q
 ELEC.     1.00000E+00       0.000000
 TRANS.    2.52294E+06      14.740935
 ROT.      3.61136E+01       3.586668
 VIB.      1.00574E+00       0.005726
 TOT.      9.16355E+07      18.333330

              E         H         G         CV        CP        S
           KJ/MOL    KJ/MOL    KJ/MOL   J/MOL-K   J/MOL-K   J/MOL-K
 ELEC.      0.000     0.000     0.000     0.000     0.000     0.000
 TRANS.     3.718     6.197   -36.542    12.472    20.786   143.348
 ROT.       3.718     3.718    -8.891    12.472    12.472    42.293
 VIB.     117.016   117.016   116.907     2.133     2.133     0.365
 TOTAL    124.452   126.931    71.474    27.076    35.390   186.006
 VIB. THERMAL CORRECTION E(T)-E(0) = H(T)-H(0) =        94.778 J/MOL

              E         H         G         CV        CP        S
         KCAL/MOL  KCAL/MOL  KCAL/MOL CAL/MOL-K CAL/MOL-K CAL/MOL-K
 ELEC.      0.000     0.000     0.000     0.000     0.000     0.000
 TRANS.     0.889     1.481    -8.734     2.981     4.968    34.261
 ROT.       0.889     0.889    -2.125     2.981     2.981    10.108
 VIB.      27.967    27.967    27.941     0.510     0.510     0.087
 TOTAL     29.745    30.337    17.083     6.471     8.458    44.457
 VIB. THERMAL CORRECTION E(T)-E(0) = H(T)-H(0) =        22.652 CAL/MOL
 ......END OF NORMAL COORDINATE ANALYSIS......
 STEP CPU TIME =     0.00 TOTAL CPU TIME =        739.9 (     12.3 MIN)
 TOTAL WALL CLOCK TIME=        741.7 SECONDS, CPU UTILIZATION IS    99.76%
               5490075  WORDS OF DYNAMIC MEMORY USED
 EXECUTION OF GAMESS TERMINATED NORMALLY Thu Aug 17 06:20:30 2023
 DDI: 263640 bytes (0.3 MB / 0 MWords) used by master data server.

 ----------------------------------------
 CPU timing information for all processes
 ========================================
 0: 738.836 + 1.84 = 739.920
 ----------------------------------------
 ddikick.x: exited gracefully.
----- accounting info -----
Files used on the master node chemcompute-node-0.novalocal were:
-rw-r--r--. 1 chemcomp chemcomp      661 Aug 17 06:08 /scratch/264530/620624.F05
-rw-rw-r--. 1 chemcomp chemcomp 70451200 Aug 17 06:20 /scratch/264530/620624.F10
-rw-rw-r--. 1 chemcomp chemcomp  2740712 Aug 17 06:19 /scratch/264530/620624.F22
Thu Aug 17 06:20:33 UTC 2023
0.085u 0.026s 12:24.96 0.0%	0+0k 8+208io 0pf+0w
Finishing Up...
Looking for IR data...
Looking for Raman data...
vibramans not found
Looking for thermodynamics data...
Looking for UV-Vis data...
chemcompute.org
{'UTCtimestamp': '2023-08-17T06:20:35.516265', 'cluster': 'jetstream2', 'clusterJobNumber': '264530', 'status': 'COMPLETE', 'nodeList': 'chemcompute-node-0'}
264530
