chemcompute.org
{'UTCtimestamp': '2023-08-17T06:04:45.161872', 'cluster': 'jetstream2', 'clusterJobNumber': '264528', 'status': 'RUNNING', 'nodeList': 'chemcompute-node-0'}
----- GAMESS execution script 'rungms' -----
This job is running on host chemcompute-node-0.novalocal
under operating system Linux at Thu Aug 17 06:04:48 UTC 2023
SLURM has assigned the following compute nodes to this run:
Available scratch disk space (Kbyte units) at beginning of the job is
Filesystem     1K-blocks     Used Available Use% Mounted on
/dev/sda4       61775852 11433536  50342316  19% /
GAMESS temporary binary files will be written to /scratch/264528
GAMESS supplementary output files will be written to /data/slurm/62/620620
Copying input file 620620.inp to your run's scratch directory...
The generated host list is
chemcompute-node-0.novalocal

 Distributed Data Interface kickoff program.
 Initiating 1 compute processes on 1 nodes to run the following command:
 /data/gamess-2019R1-avx2-ddi/gamess.00.x 620620 

          ******************************************************
          *         GAMESS VERSION = 30 JUN 2019 (R1)          *
          *             FROM IOWA STATE UNIVERSITY             *
          * M.W.SCHMIDT, K.K.BALDRIDGE, J.A.BOATZ, S.T.ELBERT, *
          *   M.S.GORDON, J.H.JENSEN, S.KOSEKI, N.MATSUNAGA,   *
          *          K.A.NGUYEN, S.J.SU, T.L.WINDUS,           *
          *       TOGETHER WITH M.DUPUIS, J.A.MONTGOMERY       *
          *         J.COMPUT.CHEM.  14, 1347-1363(1993)        *
          **************** 64 BIT INTEL VERSION ****************

  SINCE 1993, STUDENTS AND POSTDOCS WORKING AT IOWA STATE UNIVERSITY
  AND ALSO IN THEIR VARIOUS JOBS AFTER LEAVING ISU HAVE MADE IMPORTANT
  CONTRIBUTIONS TO THE CODE:
     IVANA ADAMOVIC, CHRISTINE AIKENS, YURI ALEXEEV, POOJA ARORA,
     ANDREY ASADCHEV, ROB BELL, PRADIPTA BANDYOPADHYAY, JONATHAN BENTZ,
     COLLEEN BERTONI, BRETT BODE, KURT BRORSEN, CALEB CARLIN, GALINA CHABAN,
     WEI CHEN, CHEOL HO CHOI, PAUL DAY, ALBERT DEFUSCO, NUWAN DESILVA,
     TIM DUDLEY, DMITRI FEDOROV, ALEX FINDLATER, GRAHAM FLETCHER, 
     MARK FREITAG, KURT GLAESEMANN, ANASTASIA GUNINA,
     DAN KEMP, GRANT MERRILL, NORIYUKI MINEZAWA, JONATHAN MULLIN,
     TAKESHI NAGATA, SEAN NEDD, HEATHER NETZLOFF, BOSILJKA NJEGIC, RYAN OLSON,
     MIKE PAK, BUU PHAM,
     SPENCER PRUITT, LUKE ROSKOP, JIM SHOEMAKER, LYUDMILA SLIPCHENKO,
     TONY SMITH, SAROM SOK LEANG, JIE SONG, TETSUYA TAKETSUGU, SIMON WEBB,
     PENG XU, SOOHAENG YOO, FEDERICO ZAHARIEV

  ADDITIONAL CODE HAS BEEN PROVIDED BY COLLABORATORS IN OTHER GROUPS:
     IOWA STATE UNIVERSITY:
          JOE IVANIC, AARON WEST, LAIMUTIS BYTAUTAS, KLAUS RUEDENBERG
     UNIVERSITY OF TOKYO: KIMIHIKO HIRAO, TAKAHITO NAKAJIMA,
          TAKAO TSUNEDA, MUNEAKI KAMIYA, SUSUMU YANAGISAWA,
          KIYOSHI YAGI, MAHITO CHIBA, SEIKEN TOKURA, NAOAKI KAWAKAMI
     UNIVERSITY OF AARHUS: FRANK JENSEN
     UNIVERSITY OF IOWA: VISVALDAS KAIRYS, HUI LI
     NATIONAL INST. OF STANDARDS AND TECHNOLOGY: WALT STEVENS, DAVID GARMER
     UNIVERSITY OF PISA: BENEDETTA MENNUCCI, JACOPO TOMASI
     UNIVERSITY OF MEMPHIS: HENRY KURTZ, PRAKASHAN KORAMBATH
     UNIVERSITY OF ALBERTA: TOBY ZENG, MARIUSZ KLOBUKOWSKI
     UNIVERSITY OF NEW ENGLAND: MARK SPACKMAN
     MIE UNIVERSITY: HIROAKI UMEDA
     NAT. INST. OF ADVANCED INDUSTRIAL SCIENCE AND TECHNOLOGY: KAZUO KITAURA
     MICHIGAN STATE UNIVERSITY:
          KAROL KOWALSKI, MARTA WLOCH, JEFFREY GOUR, JESSE LUTZ,
          WEI LI, JUN SHEN, J. EMILIANO DEUSTUA, PIOTR PIECUCH
     UNIVERSITY OF MINNESOTA:
          YINAN SHU
     UNIVERSITY OF SILESIA: MONIKA MUSIAL, STANISLAW KUCHARSKI
     FACULTES UNIVERSITAIRES NOTRE-DAME DE LA PAIX:
          OLIVIER QUINET, BENOIT CHAMPAGNE
     UNIVERSITY OF CALIFORNIA - SANTA BARBARA: BERNARD KIRTMAN
     INSTITUTE FOR MOLECULAR SCIENCE:
          KAZUYA ISHIMURA, MICHIO KATOUDA, AND SHIGERU NAGASE
     UNIVERSITY OF NOTRE DAME: ANNA POMOGAEVA, DAN CHIPMAN
     KYUSHU UNIVERSITY:
          HARUYUKI NAKANO,
          FENG LONG GU, JACEK KORCHOWIEC, MARCIN MAKOWSKI, AND YURIKO AOKI,
          HIROTOSHI MORI AND EISAKU MIYOSHI
     PENNSYLVANIA STATE UNIVERSITY:
          TZVETELIN IORDANOV, CHET SWALINA, JONATHAN SKONE,
          SHARON HAMMES-SCHIFFER
     WASEDA UNIVERSITY:
          MASATO KOBAYASHI, TOMOKO AKAMA, TSUGUKI TOUMA,
          TAKESHI YOSHIKAWA, YASUHIRO IKABATA, JUNJI SEINO,
          YUYA NAKAJIMA, HIROMI NAKAI
     NANJING UNIVERSITY: SHUHUA LI
     UNIVERSITY OF NEBRASKA:
          PEIFENG SU, DEJUN SI, NANDUN THELLAMUREGE, YALI WANG, HUI LI
     UNIVERSITY OF ZURICH: ROBERTO PEVERATI, KIM BALDRIDGE
     N. COPERNICUS UNIVERSITY AND JACKSON STATE UNIVERSITY:
          MARIA BARYSZ
     UNIVERSITY OF COPENHAGEN: Jimmy Kromann, CASPER STEINMANN
     TOKYO INSTITUTE OF TECHNOLOGY: HIROYA NAKATA
     NAGOYA UNIVERSITY: YOSHIO NISHIMOTO, STEPHAN IRLE
     MOSCOW STATE UNIVERSITY: VLADIMIR MIRONOV
     A.N.NESMEYANOV INSTITUTE OF ORGANOELEMENT COMPOUNDS OF RUSSIAN ACADEMY OF SCIENCES:
          IGOR S. GERASIMOV

 EXECUTION OF GAMESS BEGUN Thu Aug 17 06:04:48 2023

            ECHO OF THE FIRST FEW INPUT CARDS -
 INPUT CARD>!                                                                               
 INPUT CARD>!   GAMESS Calculation input file                                               
 INPUT CARD>!                                                                               
 INPUT CARD>!                                                                               
 INPUT CARD> $CONTRL SCFTYP=RHF MAXIT=200 RUNTYP=OPTIMIZE                                   
 INPUT CARD>         COORD=UNIQUE MULT=1 ISPHER=1                                           
 INPUT CARD>         ICHARG=0                                                               
 INPUT CARD>         DFTTYP=B3LYP                                                           
 INPUT CARD>         MOLPLT=.FALSE. PLTORB=.FALSE.  $END                                    
 INPUT CARD> $SYSTEM TIMLIM=2879 MWORDS=250  $END                                           
 INPUT CARD>                                                                                
 INPUT CARD> $FORCE METHOD=SEMINUM NVIB=2 $END                                              
 INPUT CARD> $STATPT OPTTOL=0.0005 NSTEP=999 $END                                           
 INPUT CARD> $STATPT IHREP=0 HSSEND=.TRUE.  $END                                            
 INPUT CARD>                                                                                
 INPUT CARD> $DFT    METHOD=GRID  NLEB=590  $END                                            
 INPUT CARD>                                                                                
 INPUT CARD> $BASIS  GBASIS=CCT $END                                                        
 INPUT CARD>                                                                                
 INPUT CARD> $SCF    DIRSCF=.T. $END                                                        
 INPUT CARD> $GUESS  GUESS=HUCKEL  $END                                                     
 INPUT CARD>                                                                                
 INPUT CARD> $DATA                                                                          
 INPUT CARD>                                                                                
 INPUT CARD>  Td                                                                            
 INPUT CARD>                                                                                
 INPUT CARD>C     6.0     0.00     0.00     0.00                                            
 INPUT CARD>H     1.0     0.63     0.63     0.63                                            
 INPUT CARD> $END                                                                           
 INPUT CARD>                                                                                
 INPUT CARD>                                                                                
 INPUT CARD>! Customizations after this line are persisted when using Do More Calculations  
  250000000 WORDS OF MEMORY AVAILABLE

     BASIS OPTIONS
     -------------
     GBASIS=CCT          IGAUSS=       0      POLAR=NONE    
     NDFUNC=       0     NFFUNC=       0     DIFFSP=       F
     NPFUNC=       0      DIFFS=       F     BASNAM=        


     RUN TITLE
     ---------
                                                                                 

 THE POINT GROUP OF THE MOLECULE IS TD      
 THE ORDER OF THE PRINCIPAL AXIS IS     0

 ATOM      ATOMIC                      COORDINATES (BOHR)
           CHARGE         X                   Y                   Z
 C           6.0     0.0000000000        0.0000000000        0.0000000000
 H           1.0     1.1905273723       -1.1905273723       -1.1905273723
 H           1.0    -1.1905273723        1.1905273723       -1.1905273723
 H           1.0    -1.1905273723       -1.1905273723        1.1905273723
 H           1.0     1.1905273723        1.1905273723        1.1905273723

          INTERNUCLEAR DISTANCES (ANGS.)
          ------------------------------

                1 C          2 H          3 H          4 H          5 H     

   1 C       0.0000000    1.0911920 *  1.0911920 *  1.0911920 *  1.0911920 *
   2 H       1.0911920 *  0.0000000    1.7819091 *  1.7819091 *  1.7819091 *
   3 H       1.0911920 *  1.7819091 *  0.0000000    1.7819091 *  1.7819091 *
   4 H       1.0911920 *  1.7819091 *  1.7819091 *  0.0000000    1.7819091 *
   5 H       1.0911920 *  1.7819091 *  1.7819091 *  1.7819091 *  0.0000000  

  * ... LESS THAN  3.000


     ATOMIC BASIS SET
     ----------------
 THE CONTRACTED PRIMITIVE FUNCTIONS HAVE BEEN UNNORMALIZED
 THE CONTRACTED BASIS FUNCTIONS ARE NOW NORMALIZED TO UNITY

  SHELL TYPE  PRIMITIVE        EXPONENT          CONTRACTION COEFFICIENT(S)

 C         

      1   S       1          8236.0000000    0.000542430189
      1   S       2          1235.0000000    0.004196427901
      1   S       3           280.8000000    0.021540914108
      1   S       4            79.2700000    0.083614949614
      1   S       5            25.5900000    0.239871618922
      1   S       6             8.9970000    0.443751820060
      1   S       7             3.3190000    0.353579696469
      1   S       8             0.3643000   -0.009176366076

      2   S       9          8236.0000000   -0.000196392234
      2   S      10          1235.0000000   -0.001525950274
      2   S      11           280.8000000   -0.007890449028
      2   S      12            79.2700000   -0.031514870532
      2   S      13            25.5900000   -0.096910008320
      2   S      14             8.9970000   -0.220541526288
      2   S      15             3.3190000   -0.296069112937
      2   S      16             0.3643000    1.040503432950

      3   S      17             0.9059000    1.000000000000

      4   S      18             0.1285000    1.000000000000

      5   P      19            18.7100000    0.039426387165
      5   P      20             4.1330000    0.244088984924
      5   P      21             1.2000000    0.815492008943

      6   P      22             0.3827000    1.000000000000

      7   P      23             0.1209000    1.000000000000

      8   D      24             1.0970000    1.000000000000

      9   D      25             0.3180000    1.000000000000

     10   F      26             0.7610000    1.000000000000

 H         

     29   S      27            33.8700000    0.025494863235
     29   S      28             5.0950000    0.190362765893
     29   S      29             1.1590000    0.852162022245

     30   S      30             0.3258000    1.000000000000

     31   S      31             0.1027000    1.000000000000

     32   P      32             1.4070000    1.000000000000

     33   P      33             0.3880000    1.000000000000

     34   D      34             1.0570000    1.000000000000

 TOTAL NUMBER OF BASIS SET SHELLS             =   34
 NUMBER OF CARTESIAN GAUSSIAN BASIS FUNCTIONS =   95
 NOTE: THIS RUN WILL RESTRICT THE MO VARIATION SPACE TO SPHERICAL HARMONICS.
 THE NUMBER OF ORBITALS KEPT IN THE VARIATIONAL SPACE WILL BE PRINTED LATER.
 NUMBER OF ELECTRONS                          =   10
 CHARGE OF MOLECULE                           =    0
 SPIN MULTIPLICITY                            =    1
 NUMBER OF OCCUPIED ORBITALS (ALPHA)          =    5
 NUMBER OF OCCUPIED ORBITALS (BETA )          =    5
 TOTAL NUMBER OF ATOMS                        =    5
 THE NUCLEAR REPULSION ENERGY IS       13.4207135227

 SELECTED MURRAY-HANDY-LAMING RADIAL GRID

 LEGACY BECKE'S FUZZY CELL METHOD

 SELECTED ORIGINAL BECKE'S PARTITION FUNCTION

     LEBEDEV GRID-BASED DFT OPTIONS
     ------------------------------
     DFTTYP=B3LYP   
     NRAD  =      96     NLEB  =     590
     NRAD0 =      24     NLEB0 =     110
     SWOFF =    5.00E-03 (PURE SCF -> DFT)
     SWITCH=    3.00E-04 (COARSE -> TIGHT GRID)
     THRESH=    0.00E+00 GTHRE=    1.00E+00

 GRIMME'S EMPIRICAL DISPERSION CORRECTION= F

     $CONTRL OPTIONS
     ---------------
 SCFTYP=RHF          RUNTYP=OPTIMIZE     EXETYP=RUN     
 MPLEVL=       0     CITYP =NONE         CCTYP =NONE         VBTYP =NONE    
 DFTTYP=B3LYP        TDDFT =NONE    
 MULT  =       1     ICHARG=       0     NZVAR =       0     COORD =UNIQUE  
 PP    =NONE         RELWFN=NONE         LOCAL =NONE         NUMGRD=       F
 ISPHER=       1     NOSYM =       0     MAXIT =     200     UNITS =ANGS    
 PLTORB=       F     MOLPLT=       F     AIMPAC=       F     FRIEND=        
 NPRINT=       7     IREST =       0     GEOM  =INPUT   
 NORMF =       0     NORMP =       0     ITOL  =      20     ICUT  =       9
 INTTYP=BEST         GRDTYP=BEST         QMTTOL= 1.0E-06

     $SYSTEM OPTIONS
     ---------------
  REPLICATED MEMORY=   250000000 WORDS (ON EVERY NODE).
 DISTRIBUTED MEMDDI=           0 MILLION WORDS IN AGGREGATE,
 MEMDDI DISTRIBUTED OVER   1 PROCESSORS IS           0 WORDS/PROCESSOR.
 TOTAL MEMORY REQUESTED ON EACH PROCESSOR=   250000000 WORDS.
 TIMLIM=        2879.00 MINUTES, OR       2.0 DAYS.
 PARALL= F  BALTYP=  DLB     KDIAG=    0  COREFL= F
 MXSEQ2=     300 MXSEQ3=     150  mem10=         0

          ----------------
          PROPERTIES INPUT
          ----------------

     MOMENTS            FIELD           POTENTIAL          DENSITY
 IEMOM =       1   IEFLD =       0   IEPOT =       0   IEDEN =       0
 WHERE =COMASS     WHERE =NUCLEI     WHERE =NUCLEI     WHERE =NUCLEI  
 OUTPUT=BOTH       OUTPUT=BOTH       OUTPUT=BOTH       OUTPUT=BOTH    
 IEMINT=       0   IEFINT=       0                     IEDINT=       0
                                                       MORB  =       0
          EXTRAPOLATION IN EFFECT
          DIIS IN EFFECT
 ORBITAL PRINTING OPTION: NPREO=     1    95     2     1

     -------------------------------
     INTEGRAL TRANSFORMATION OPTIONS
     -------------------------------
     NWORD  =            0
     CUTOFF = 1.0E-09     MPTRAN =       0
     DIRTRF =       T     AOINTS =DUP     

          ----------------------
          INTEGRAL INPUT OPTIONS
          ----------------------
 NOPK  =       1 NORDER=       0 SCHWRZ=       T

     --------------------------------
     THE POINT GROUP IS TD , ORDER=24
     --------------------------------

 -- VARIATIONAL SPACE WILL BE RESTRICTED TO PURE SPHERICAL HARMONICS ONLY --
 AFTER EXCLUDING CONTAMINANT COMBINATIONS FROM THE CARTESIAN GAUSSIAN BASIS
 SET, THE NUMBER OF SPHERICAL HARMONICS KEPT IN THE VARIATION SPACE IS   86

     DIMENSIONS OF THE SYMMETRY SUBSPACES ARE
 A1  =   11     A2  =    0     E   =    6     T1  =    5     T2  =   16

 ..... DONE SETTING UP THE RUN .....
 STEP CPU TIME =     0.01 TOTAL CPU TIME =          0.0 (      0.0 MIN)
 TOTAL WALL CLOCK TIME=          0.0 SECONDS, CPU UTILIZATION IS    33.33%


          -----------------------------
          STATIONARY POINT LOCATION RUN
          -----------------------------

 OBTAINING INITIAL HESSIAN, HESS=GUESS   
 CARTESIAN COORDINATE OPTIMIZATION USING BADGER'S RULE FORCE CONSTANT GUESS

          PARAMETERS CONTROLLING GEOMETRY SEARCH ARE
          METHOD =QA                  UPHESS =BFGS    
          NNEG   =         0          NFRZ   =         0
          NSTEP  =       999          IFOLOW =         1
          HESS   =GUESS               RESTAR =         F
          IHREP  =         0          HSSEND =         T
          NPRT   =         0          NPUN   =         0
          OPTTOL = 5.000E-04          RMIN   = 1.500E-03
          RMAX   = 1.000E-01          RLIM   = 7.000E-02
          DXMAX  = 3.000E-01          PURIFY =         F
          MOVIE  =         F          TRUPD  =         T
          TRMAX  = 5.000E-01          TRMIN  = 5.000E-02
          ITBMAT =         5          STPT   =         F
          STSTEP = 1.000E-02          PROJCT=          T

 BEGINNING GEOMETRY SEARCH POINT NSERCH=   0 ...

 COORDINATES OF SYMMETRY UNIQUE ATOMS (ANGS)
   ATOM   CHARGE       X              Y              Z
 ------------------------------------------------------------
 C           6.0   0.0000000000   0.0000000000   0.0000000000
 H           1.0   0.6300000000   0.6300000000   0.6300000000
 COORDINATES OF ALL ATOMS ARE (ANGS)
   ATOM   CHARGE       X              Y              Z
 ------------------------------------------------------------
 C           6.0   0.0000000000   0.0000000000   0.0000000000
 H           1.0   0.6300000000  -0.6300000000  -0.6300000000
 H           1.0  -0.6300000000   0.6300000000  -0.6300000000
 H           1.0  -0.6300000000  -0.6300000000   0.6300000000
 H           1.0   0.6300000000   0.6300000000   0.6300000000

          ********************
          1 ELECTRON INTEGRALS
          ********************
 ...... END OF ONE-ELECTRON INTEGRALS ......
 STEP CPU TIME =     0.00 TOTAL CPU TIME =          0.0 (      0.0 MIN)
 TOTAL WALL CLOCK TIME=          0.0 SECONDS, CPU UTILIZATION IS    25.00%

          -------------
          GUESS OPTIONS
          -------------
          GUESS =HUCKEL            NORB  =       0          NORDER=       0
          MIX   =       F          PRTMO =       F          PUNMO =       F
          TOLZ  = 1.0E-08          TOLE  = 1.0E-05
          SYMDEN=       F          PURIFY=       F

 INITIAL GUESS ORBITALS GENERATED BY HUCKEL   ROUTINE.
 HUCKEL GUESS REQUIRES     68876 WORDS.

 STATISTICS FOR GENERATION OF SYMMETRY ORBITAL -Q- MATRIX
 NUMBER OF CARTESIAN ATOMIC ORBITALS=         95
 NUMBER OF SPHERICAL CONTAMINANTS DROPPED=     9
 NUMBER OF LINEARLY DEPENDENT MOS DROPPED=     0
 TOTAL NUMBER OF MOS IN VARIATION SPACE=      86

 SYMMETRIES FOR INITIAL GUESS ORBITALS FOLLOW.   BOTH SET(S).
     5 ORBITALS ARE OCCUPIED (    1 CORE ORBITALS).
     2=A1       3=T2       4=T2       5=T2       6=T2       7=T2       8=T2  
     9=A1      10=A1      11=A1      12=A1      13=A1      14=A1      15=A1  
 ...... END OF INITIAL ORBITAL SELECTION ......
 STEP CPU TIME =     0.02 TOTAL CPU TIME =          0.0 (      0.0 MIN)
 TOTAL WALL CLOCK TIME=          0.1 SECONDS, CPU UTILIZATION IS    50.00%

                    ----------------------
                    AO INTEGRAL TECHNOLOGY
                    ----------------------
     S,P,L SHELL ROTATED AXIS INTEGRALS, REPROGRAMMED BY
        KAZUYA ISHIMURA (IMS) AND JOSE SIERRA (SYNSTAR).
     S,P,D,L SHELL ROTATED AXIS INTEGRALS PROGRAMMED BY
        KAZUYA ISHIMURA (INSTITUTE FOR MOLECULAR SCIENCE).
     S,P,D,F,G SHELL TO TOTAL QUARTET ANGULAR MOMENTUM SUM 5,
        ERIC PROGRAM BY GRAHAM FLETCHER (ELORET AND NASA ADVANCED
        SUPERCOMPUTING DIVISION, AMES RESEARCH CENTER).
     S,P,D,F,G,L SHELL GENERAL RYS QUADRATURE PROGRAMMED BY
        MICHEL DUPUIS (PACIFIC NORTHWEST NATIONAL LABORATORY).

          --------------------
          2 ELECTRON INTEGRALS
          --------------------

 DIRECT SCF METHOD SKIPS INTEGRAL STORAGE ON DISK.
 DIRECT TRANSFORMATION SKIPS AO INTEGRAL STORAGE ON DISK.
  ...... END OF TWO-ELECTRON INTEGRALS .....
 STEP CPU TIME =     0.00 TOTAL CPU TIME =          0.0 (      0.0 MIN)
 TOTAL WALL CLOCK TIME=          0.1 SECONDS, CPU UTILIZATION IS    42.86%

          --------------------------
             R-B3LYP SCF CALCULATION
          --------------------------

     NUCLEAR ENERGY =        13.4207135227
     MAXIT =  200     NPUNCH=    2
     EXTRAP=T  DAMP=F  SHIFT=F  RSTRCT=F  DIIS=T  DEM=F  SOSCF=F
         DENSITY MATRIX CONVERGENCE THRESHOLD=  2.00E-05
     COARSE -> FINE DFT GRID SWITCH THRESHOLD=  3.00E-04 (SWITCH IN $DFT)
                   HF -> DFT SWITCH THRESHOLD=  5.00E-03 (SWOFF IN $DFT)
     MEMORY REQUIRED FOR RHF ITERS=    485973 WORDS.

 DIRECT SCF CALCULATION, SCHWRZ=T   FDIFF=T,  DIRTHR=  0.00E+00 NITDIR=10
 SCHWARZ INEQUALITY OVERHEAD:      4560 INTEGRALS, T=        0.00

 DFT CODE IS SWITCHING FROM THE FINE GRID NRAD= 96,  NLEB=  590
                      TO THE COARSE GRID NRAD0= 24, NLEB0=  110

     EXCHANGE FUNCTIONAL   =B88&HFX   
     CORRELATION FUNCTIONAL=LYP88&VWN5
     DFT THRESHOLD         =.141E-07
     GRID CHANGE THRESHOLD =.300E-03
 FOR AN EULER-MACLAURIN QUADRATURE USING  96 RADIAL POINTS:
 SMALLEST GAUSSIAN PRIMITIVE EXPONENT=        0.1027000000 OF TYPE -S-
 ON ATOM NUMBER   2 HAS RADIAL NORMALIZATION=  1.000000
  LARGEST GAUSSIAN PRIMITIVE EXPONENT=     8236.0000000000 OF TYPE -S-
 ON ATOM NUMBER   1 HAS RADIAL NORMALIZATION=  1.000000
 DFT IS SWITCHED OFF, PERFORMING PURE SCF UNTIL SWOFF THRESHOLD IS REACHED.

                                                                                   NONZERO     BLOCKS
 ITER EX DEM     TOTAL ENERGY        E CHANGE  DENSITY CHANGE    DIIS ERROR      INTEGRALS    SKIPPED
          * * *   INITIATING DIIS PROCEDURE   * * *
   1  0  0      -40.0975294355   -40.0975294355   0.529702382   0.415257317        1191750          0
   2  1  0      -40.2077248884    -0.1101954529   0.030414253   0.038252513        1191750          0
   3  2  0      -40.2125355188    -0.0048106304   0.012224657   0.024576091        1191750          0
   4  3  0      -40.2132121648    -0.0006766460   0.003760420   0.004659338        1191750          0
 CONVERGED TO SWOFF, SO DFT CALCULATION IS NOW SWITCHED ON.
          * * *   INITIATING DIIS PROCEDURE   * * *
   5  4  0      -40.4953447738    -0.2821326090   0.024820382   0.068981342        1191750          0
   6  5  0      -40.5013228177    -0.0059780439   0.015425260   0.018374664        1191750          0
   7  6  0      -40.5013557037    -0.0000328859   0.007799855   0.018738976        1191750          0
   8  7  0      -40.5021812061    -0.0008255025   0.000377367   0.000893369        1191750          0
   9  8  0      -40.5021828902    -0.0000016840   0.000015061   0.000018480        1191668          2
 DFT CODE IS SWITCHING BACK TO THE FINE GRID
          * * *   INITIATING DIIS PROCEDURE   * * *
  10  9  0      -40.5022525147    -0.0000696246   0.004853730   0.001816166        1191750          0
  11 10  0      -40.5022608300    -0.0000083153   0.000282938   0.000277233        1191750          0
  12 11  0      -40.5022608035     0.0000000265   0.000142630   0.000360289        1191669          1
  13 12  0      -40.5022610999    -0.0000002965   0.000009935   0.000006383        1191539          7
  14 13  0      -40.5022611001    -0.0000000001   0.000000748   0.000000642        1190084         33
  15 14  0      -40.5022611001     0.0000000000   0.000000055   0.000000088        1168907        286

          -----------------
          DENSITY CONVERGED
          -----------------
     TIME TO FORM FOCK OPERATORS=       2.9 SECONDS (       0.2 SEC/ITER)
     FOCK TIME ON FIRST ITERATION=       0.0, LAST ITERATION=       0.4
     TIME TO SOLVE SCF EQUATIONS=       0.1 SECONDS (       0.0 SEC/ITER)

 FINAL R-B3LYP ENERGY IS      -40.5022611001 AFTER  15 ITERATIONS
 DFT EXCHANGE + CORRELATION ENERGY =        -5.5562278547
 TOTAL ELECTRON NUMBER             =        10.0000315348

          ------------
          EIGENVECTORS
          ------------

                      1          2          3          4          5
                  -10.1528    -0.6926    -0.3915    -0.3915    -0.3915
                     A1         A1         T2         T2         T2  
    1  C  1  S    0.981625  -0.031819   0.000000   0.000000   0.000000
    2  C  1  S    0.016902   0.430125   0.000000   0.000000   0.000000
    3  C  1  S    0.050658   0.106215   0.000000   0.000000   0.000000
    4  C  1  S    0.022847   0.200806   0.000000   0.000000   0.000000
    5  C  1  X    0.000000   0.000000   0.253165   0.000000   0.000000
    6  C  1  Y    0.000000   0.000000   0.000000   0.253165   0.000000
    7  C  1  Z    0.000000   0.000000   0.000000   0.000000   0.253165
    8  C  1  X    0.000000   0.000000   0.274863   0.000000   0.000000
    9  C  1  Y    0.000000   0.000000   0.000000   0.274863   0.000000
   10  C  1  Z    0.000000   0.000000   0.000000   0.000000   0.274863
   11  C  1  X    0.000000   0.000000   0.143213   0.000000   0.000000
   12  C  1  Y    0.000000   0.000000   0.000000   0.143213   0.000000
   13  C  1  Z    0.000000   0.000000   0.000000   0.000000   0.143213
   14  C  1 XX    0.000000   0.000000   0.000000   0.000000   0.000000
   15  C  1 YY    0.000000   0.000000   0.000000   0.000000   0.000000
   16  C  1 ZZ    0.000000   0.000000   0.000000   0.000000   0.000000
   17  C  1 XY    0.000000   0.000000   0.000000   0.000000   0.014173
   18  C  1 XZ    0.000000   0.000000   0.000000   0.014173   0.000000
   19  C  1 YZ    0.000000   0.000000   0.014173   0.000000   0.000000
   20  C  1 XX    0.000000   0.000000   0.000000   0.000000   0.000000
   21  C  1 YY    0.000000   0.000000   0.000000   0.000000   0.000000
   22  C  1 ZZ    0.000000   0.000000   0.000000   0.000000   0.000000
   23  C  1 XY    0.000000   0.000000   0.000000   0.000000   0.011721
   24  C  1 XZ    0.000000   0.000000   0.000000   0.011721   0.000000
   25  C  1 YZ    0.000000   0.000000   0.011721   0.000000   0.000000
   26  C  1 XXX   0.000000   0.000000   0.000033   0.000000   0.000000
   27  C  1 YYY   0.000000   0.000000   0.000000   0.000033   0.000000
   28  C  1 ZZZ   0.000000   0.000000   0.000000   0.000000   0.000033
   29  C  1 XXY   0.000000   0.000000   0.000000  -0.000022   0.000000
   30  C  1 XXZ   0.000000   0.000000   0.000000   0.000000  -0.000022
   31  C  1 YYX   0.000000   0.000000  -0.000022   0.000000   0.000000
   32  C  1 YYZ   0.000000   0.000000   0.000000   0.000000  -0.000022
   33  C  1 ZZX   0.000000   0.000000  -0.000022   0.000000   0.000000
   34  C  1 ZZY   0.000000   0.000000   0.000000  -0.000022   0.000000
   35  C  1 XYZ   0.002888   0.006214   0.000000   0.000000   0.000000
   36  H  2  S    0.000052   0.085454   0.106290  -0.106290  -0.106290
   37  H  2  S   -0.009024   0.084846   0.150033  -0.150033  -0.150033
   38  H  2  S   -0.002728   0.015022   0.078558  -0.078558  -0.078558
   39  H  2  X    0.000739  -0.004797  -0.001053   0.006467   0.006467
   40  H  2  Y   -0.000739   0.004797   0.006467  -0.001053  -0.006467
   41  H  2  Z   -0.000739   0.004797   0.006467  -0.006467  -0.001053
   42  H  2  X    0.002664  -0.001580   0.005231   0.007826   0.007826
   43  H  2  Y   -0.002664   0.001580   0.007826   0.005231  -0.007826
   44  H  2  Z   -0.002664   0.001580   0.007826  -0.007826   0.005231
   45  H  2 XX    0.000000   0.000000  -0.001690  -0.000845  -0.000845
   46  H  2 YY    0.000000   0.000000   0.000845   0.001690  -0.000845
   47  H  2 ZZ    0.000000   0.000000   0.000845  -0.000845   0.001690
   48  H  2 XY    0.000931  -0.000929  -0.000733   0.000733   0.002288
   49  H  2 XZ    0.000931  -0.000929  -0.000733   0.002288   0.000733
   50  H  2 YZ   -0.000931   0.000929   0.002288  -0.000733  -0.000733
   51  H  3  S    0.000052   0.085454  -0.106290   0.106290  -0.106290
   52  H  3  S   -0.009024   0.084846  -0.150033   0.150033  -0.150033
   53  H  3  S   -0.002728   0.015022  -0.078558   0.078558  -0.078558
   54  H  3  X   -0.000739   0.004797  -0.001053   0.006467  -0.006467
   55  H  3  Y    0.000739  -0.004797   0.006467  -0.001053   0.006467
   56  H  3  Z   -0.000739   0.004797  -0.006467   0.006467  -0.001053
   57  H  3  X   -0.002664   0.001580   0.005231   0.007826  -0.007826
   58  H  3  Y    0.002664  -0.001580   0.007826   0.005231   0.007826
   59  H  3  Z   -0.002664   0.001580  -0.007826   0.007826   0.005231
   60  H  3 XX    0.000000   0.000000   0.001690   0.000845  -0.000845
   61  H  3 YY    0.000000   0.000000  -0.000845  -0.001690  -0.000845
   62  H  3 ZZ    0.000000   0.000000  -0.000845   0.000845   0.001690
   63  H  3 XY    0.000931  -0.000929   0.000733  -0.000733   0.002288
   64  H  3 XZ   -0.000931   0.000929  -0.000733   0.002288  -0.000733
   65  H  3 YZ    0.000931  -0.000929   0.002288  -0.000733   0.000733
   66  H  4  S    0.000052   0.085454  -0.106290  -0.106290   0.106290
   67  H  4  S   -0.009024   0.084846  -0.150033  -0.150033   0.150033
   68  H  4  S   -0.002728   0.015022  -0.078558  -0.078558   0.078558
   69  H  4  X   -0.000739   0.004797  -0.001053  -0.006467   0.006467
   70  H  4  Y   -0.000739   0.004797  -0.006467  -0.001053   0.006467
   71  H  4  Z    0.000739  -0.004797   0.006467   0.006467  -0.001053
   72  H  4  X   -0.002664   0.001580   0.005231  -0.007826   0.007826
   73  H  4  Y   -0.002664   0.001580  -0.007826   0.005231   0.007826
   74  H  4  Z    0.002664  -0.001580   0.007826   0.007826   0.005231
   75  H  4 XX    0.000000   0.000000   0.001690  -0.000845   0.000845
   76  H  4 YY    0.000000   0.000000  -0.000845   0.001690   0.000845
   77  H  4 ZZ    0.000000   0.000000  -0.000845  -0.000845  -0.001690
   78  H  4 XY   -0.000931   0.000929  -0.000733  -0.000733   0.002288
   79  H  4 XZ    0.000931  -0.000929   0.000733   0.002288  -0.000733
   80  H  4 YZ    0.000931  -0.000929   0.002288   0.000733  -0.000733
   81  H  5  S    0.000052   0.085454   0.106290   0.106290   0.106290
   82  H  5  S   -0.009024   0.084846   0.150033   0.150033   0.150033
   83  H  5  S   -0.002728   0.015022   0.078558   0.078558   0.078558
   84  H  5  X    0.000739  -0.004797  -0.001053  -0.006467  -0.006467
   85  H  5  Y    0.000739  -0.004797  -0.006467  -0.001053  -0.006467
   86  H  5  Z    0.000739  -0.004797  -0.006467  -0.006467  -0.001053
   87  H  5  X    0.002664  -0.001580   0.005231  -0.007826  -0.007826
   88  H  5  Y    0.002664  -0.001580  -0.007826   0.005231  -0.007826
   89  H  5  Z    0.002664  -0.001580  -0.007826  -0.007826   0.005231
   90  H  5 XX    0.000000   0.000000  -0.001690   0.000845   0.000845
   91  H  5 YY    0.000000   0.000000   0.000845  -0.001690   0.000845
   92  H  5 ZZ    0.000000   0.000000   0.000845   0.000845  -0.001690
   93  H  5 XY   -0.000931   0.000929   0.000733   0.000733   0.002288
   94  H  5 XZ   -0.000931   0.000929   0.000733   0.002288   0.000733
   95  H  5 YZ   -0.000931   0.000929   0.002288   0.000733   0.000733

                      6          7          8          9         10
                    0.0469     0.1226     0.1226     0.1226     0.2401
                     A1         T2         T2         T2         T2  
    1  C  1  S    0.017722   0.000000   0.000000   0.000000   0.000000
    2  C  1  S    0.308175   0.000000   0.000000   0.000000   0.000000
    3  C  1  S    0.074662   0.000000   0.000000   0.000000   0.000000
    4  C  1  S    3.152437   0.000000   0.000000   0.000000   0.000000
    5  C  1  X    0.000000   0.000000   0.183771   0.000000  -0.094596
    6  C  1  Y    0.000000   0.183771   0.000000   0.000000   0.000000
    7  C  1  Z    0.000000   0.000000   0.000000   0.183771   0.000000
    8  C  1  X    0.000000   0.000000   0.384653   0.000000   0.418143
    9  C  1  Y    0.000000   0.384653   0.000000   0.000000   0.000000
   10  C  1  Z    0.000000   0.000000   0.000000   0.384653   0.000000
   11  C  1  X    0.000000   0.000000   1.566368   0.000000   2.005446
   12  C  1  Y    0.000000   1.566368   0.000000   0.000000   0.000000
   13  C  1  Z    0.000000   0.000000   0.000000   1.566368   0.000000
   14  C  1 XX    0.000000   0.000000   0.000000   0.000000   0.000000
   15  C  1 YY    0.000000   0.000000   0.000000   0.000000   0.000000
   16  C  1 ZZ    0.000000   0.000000   0.000000   0.000000   0.000000
   17  C  1 XY    0.000000   0.000000   0.000000  -0.009177   0.000000
   18  C  1 XZ    0.000000  -0.009177   0.000000   0.000000   0.000000
   19  C  1 YZ    0.000000   0.000000  -0.009177   0.000000  -0.008920
   20  C  1 XX    0.000000   0.000000   0.000000   0.000000   0.000000
   21  C  1 YY    0.000000   0.000000   0.000000   0.000000   0.000000
   22  C  1 ZZ    0.000000   0.000000   0.000000   0.000000   0.000000
   23  C  1 XY    0.000000   0.000000   0.000000   0.089156   0.000000
   24  C  1 XZ    0.000000   0.089156   0.000000   0.000000   0.000000
   25  C  1 YZ    0.000000   0.000000   0.089156   0.000000   0.424799
   26  C  1 XXX   0.000000   0.000000  -0.002283   0.000000  -0.046524
   27  C  1 YYY   0.000000  -0.002283   0.000000   0.000000   0.000000
   28  C  1 ZZZ   0.000000   0.000000   0.000000  -0.002283   0.000000
   29  C  1 XXY   0.000000   0.001532   0.000000   0.000000   0.000000
   30  C  1 XXZ   0.000000   0.000000   0.000000   0.001532   0.000000
   31  C  1 YYX   0.000000   0.000000   0.001532   0.000000   0.031209
   32  C  1 YYZ   0.000000   0.000000   0.000000   0.001532   0.000000
   33  C  1 ZZX   0.000000   0.000000   0.001532   0.000000   0.031209
   34  C  1 ZZY   0.000000   0.001532   0.000000   0.000000   0.000000
   35  C  1 XYZ   0.020540   0.000000   0.000000   0.000000   0.000000
   36  H  2  S   -0.001207   0.020300  -0.020300   0.020300  -0.042099
   37  H  2  S   -0.193574   0.151775  -0.151775   0.151775  -1.042431
   38  H  2  S   -0.993693   1.523005  -1.523005   1.523005  -0.234785
   39  H  2  X   -0.007147   0.011312  -0.000018   0.011312   0.022424
   40  H  2  Y    0.007147  -0.000018   0.011312  -0.011312  -0.005825
   41  H  2  Z    0.007147  -0.011312   0.011312  -0.000018  -0.005825
   42  H  2  X    0.057875  -0.052307   0.036579  -0.052307   0.119101
   43  H  2  Y   -0.057875   0.036579  -0.052307   0.052307  -0.126314
   44  H  2  Z   -0.057875   0.052307  -0.052307   0.036579  -0.126314
   45  H  2 XX    0.000000  -0.001100  -0.002200  -0.001100  -0.005052
   46  H  2 YY    0.000000   0.002200   0.001100  -0.001100   0.002526
   47  H  2 ZZ    0.000000  -0.001100   0.001100   0.002200   0.002526
   48  H  2 XY    0.003212  -0.002637   0.002637  -0.004164   0.009208
   49  H  2 XZ    0.003212  -0.004164   0.002637  -0.002637   0.009208
   50  H  2 YZ   -0.003212   0.002637  -0.004164   0.002637  -0.017654
   51  H  3  S   -0.001207  -0.020300   0.020300   0.020300   0.042099
   52  H  3  S   -0.193574  -0.151775   0.151775   0.151775   1.042431
   53  H  3  S   -0.993693  -1.523005   1.523005   1.523005   0.234785
   54  H  3  X    0.007147   0.011312  -0.000018  -0.011312   0.022424
   55  H  3  Y   -0.007147  -0.000018   0.011312   0.011312  -0.005825
   56  H  3  Z    0.007147   0.011312  -0.011312  -0.000018   0.005825
   57  H  3  X   -0.057875  -0.052307   0.036579   0.052307   0.119101
   58  H  3  Y    0.057875   0.036579  -0.052307  -0.052307  -0.126314
   59  H  3  Z   -0.057875  -0.052307   0.052307   0.036579   0.126314
   60  H  3 XX    0.000000   0.001100   0.002200  -0.001100   0.005052
   61  H  3 YY    0.000000  -0.002200  -0.001100  -0.001100  -0.002526
   62  H  3 ZZ    0.000000   0.001100  -0.001100   0.002200  -0.002526
   63  H  3 XY    0.003212   0.002637  -0.002637  -0.004164  -0.009208
   64  H  3 XZ   -0.003212  -0.004164   0.002637   0.002637   0.009208
   65  H  3 YZ    0.003212   0.002637  -0.004164  -0.002637  -0.017654
   66  H  4  S   -0.001207   0.020300   0.020300  -0.020300   0.042099
   67  H  4  S   -0.193574   0.151775   0.151775  -0.151775   1.042431
   68  H  4  S   -0.993693   1.523005   1.523005  -1.523005   0.234785
   69  H  4  X    0.007147  -0.011312  -0.000018   0.011312   0.022424
   70  H  4  Y    0.007147  -0.000018  -0.011312   0.011312   0.005825
   71  H  4  Z   -0.007147   0.011312   0.011312  -0.000018  -0.005825
   72  H  4  X   -0.057875   0.052307   0.036579  -0.052307   0.119101
   73  H  4  Y   -0.057875   0.036579   0.052307  -0.052307   0.126314
   74  H  4  Z    0.057875  -0.052307  -0.052307   0.036579  -0.126314
   75  H  4 XX    0.000000  -0.001100   0.002200   0.001100   0.005052
   76  H  4 YY    0.000000   0.002200  -0.001100   0.001100  -0.002526
   77  H  4 ZZ    0.000000  -0.001100  -0.001100  -0.002200  -0.002526
   78  H  4 XY   -0.003212   0.002637   0.002637  -0.004164   0.009208
   79  H  4 XZ    0.003212  -0.004164  -0.002637   0.002637  -0.009208
   80  H  4 YZ    0.003212  -0.002637  -0.004164   0.002637  -0.017654
   81  H  5  S   -0.001207  -0.020300  -0.020300  -0.020300  -0.042099
   82  H  5  S   -0.193574  -0.151775  -0.151775  -0.151775  -1.042431
   83  H  5  S   -0.993693  -1.523005  -1.523005  -1.523005  -0.234785
   84  H  5  X   -0.007147  -0.011312  -0.000018  -0.011312   0.022424
   85  H  5  Y   -0.007147  -0.000018  -0.011312  -0.011312   0.005825
   86  H  5  Z   -0.007147  -0.011312  -0.011312  -0.000018   0.005825
   87  H  5  X    0.057875   0.052307   0.036579   0.052307   0.119101
   88  H  5  Y    0.057875   0.036579   0.052307   0.052307   0.126314
   89  H  5  Z    0.057875   0.052307   0.052307   0.036579   0.126314
   90  H  5 XX    0.000000   0.001100  -0.002200   0.001100  -0.005052
   91  H  5 YY    0.000000  -0.002200   0.001100   0.001100   0.002526
   92  H  5 ZZ    0.000000   0.001100   0.001100  -0.002200   0.002526
   93  H  5 XY   -0.003212  -0.002637  -0.002637  -0.004164  -0.009208
   94  H  5 XZ   -0.003212  -0.004164  -0.002637  -0.002637  -0.009208
   95  H  5 YZ   -0.003212  -0.002637  -0.004164  -0.002637  -0.017654

                     11         12         13         14         15
                    0.2401     0.2401     0.4680     0.4680     0.4680
                     T2         T2         T2         T2         T2  
    1  C  1  S    0.000000   0.000000   0.000000   0.000000   0.000000
    2  C  1  S    0.000000   0.000000   0.000000   0.000000   0.000000
    3  C  1  S    0.000000   0.000000   0.000000   0.000000   0.000000
    4  C  1  S    0.000000   0.000000   0.000000   0.000000   0.000000
    5  C  1  X    0.000000   0.000000   0.000000  -0.324886   0.000000
    6  C  1  Y   -0.094596   0.000000  -0.324886   0.000000   0.000000
    7  C  1  Z    0.000000  -0.094596   0.000000   0.000000  -0.324886
    8  C  1  X    0.000000   0.000000   0.000000   0.355076   0.000000
    9  C  1  Y    0.418143   0.000000   0.355076   0.000000   0.000000
   10  C  1  Z    0.000000   0.418143   0.000000   0.000000   0.355076
   11  C  1  X    0.000000   0.000000   0.000000   2.763570   0.000000
   12  C  1  Y    2.005446   0.000000   2.763570   0.000000   0.000000
   13  C  1  Z    0.000000   2.005446   0.000000   0.000000   2.763570
   14  C  1 XX    0.000000   0.000000   0.000000   0.000000   0.000000
   15  C  1 YY    0.000000   0.000000   0.000000   0.000000   0.000000
   16  C  1 ZZ    0.000000   0.000000   0.000000   0.000000   0.000000
   17  C  1 XY    0.000000  -0.008920   0.000000   0.000000   0.048855
   18  C  1 XZ   -0.008920   0.000000   0.048855   0.000000   0.000000
   19  C  1 YZ    0.000000   0.000000   0.000000   0.048855   0.000000
   20  C  1 XX    0.000000   0.000000   0.000000   0.000000   0.000000
   21  C  1 YY    0.000000   0.000000   0.000000   0.000000   0.000000
   22  C  1 ZZ    0.000000   0.000000   0.000000   0.000000   0.000000
   23  C  1 XY    0.000000   0.424799   0.000000   0.000000   0.795593
   24  C  1 XZ    0.424799   0.000000   0.795593   0.000000   0.000000
   25  C  1 YZ    0.000000   0.000000   0.000000   0.795593   0.000000
   26  C  1 XXX   0.000000   0.000000   0.000000  -0.038528   0.000000
   27  C  1 YYY  -0.046524   0.000000  -0.038528   0.000000   0.000000
   28  C  1 ZZZ   0.000000  -0.046524   0.000000   0.000000  -0.038528
   29  C  1 XXY   0.031209   0.000000   0.025846   0.000000   0.000000
   30  C  1 XXZ   0.000000   0.031209   0.000000   0.000000   0.025846
   31  C  1 YYX   0.000000   0.000000   0.000000   0.025846   0.000000
   32  C  1 YYZ   0.000000   0.031209   0.000000   0.000000   0.025846
   33  C  1 ZZX   0.000000   0.000000   0.000000   0.025846   0.000000
   34  C  1 ZZY   0.031209   0.000000   0.025846   0.000000   0.000000
   35  C  1 XYZ   0.000000   0.000000   0.000000   0.000000   0.000000
   36  H  2  S    0.042099   0.042099  -0.083933   0.083933  -0.083933
   37  H  2  S    1.042431   1.042431   0.473952  -0.473952   0.473952
   38  H  2  S    0.234785   0.234785   1.768044  -1.768044   1.768044
   39  H  2  X   -0.005825  -0.005825   0.003974   0.007467   0.003974
   40  H  2  Y    0.022424   0.005825   0.007467   0.003974  -0.003974
   41  H  2  Z    0.005825   0.022424  -0.003974   0.003974   0.007467
   42  H  2  X   -0.126314  -0.126314  -0.361619   0.192344  -0.361619
   43  H  2  Y    0.119101   0.126314   0.192344  -0.361619   0.361619
   44  H  2  Z    0.126314   0.119101   0.361619  -0.361619   0.192344
   45  H  2 XX   -0.002526  -0.002526   0.000833   0.001666   0.000833
   46  H  2 YY    0.005052  -0.002526  -0.001666  -0.000833   0.000833
   47  H  2 ZZ   -0.002526   0.005052   0.000833  -0.000833  -0.001666
   48  H  2 XY   -0.009208  -0.017654  -0.014124   0.014124  -0.026555
   49  H  2 XZ   -0.017654  -0.009208  -0.026555   0.014124  -0.014124
   50  H  2 YZ    0.009208   0.009208   0.014124  -0.026555   0.014124
   51  H  3  S   -0.042099   0.042099   0.083933  -0.083933  -0.083933
   52  H  3  S   -1.042431   1.042431  -0.473952   0.473952   0.473952
   53  H  3  S   -0.234785   0.234785  -1.768044   1.768044   1.768044
   54  H  3  X   -0.005825   0.005825   0.003974   0.007467  -0.003974
   55  H  3  Y    0.022424  -0.005825   0.007467   0.003974   0.003974
   56  H  3  Z   -0.005825   0.022424   0.003974  -0.003974   0.007467
   57  H  3  X   -0.126314   0.126314  -0.361619   0.192344   0.361619
   58  H  3  Y    0.119101  -0.126314   0.192344  -0.361619  -0.361619
   59  H  3  Z   -0.126314   0.119101  -0.361619   0.361619   0.192344
   60  H  3 XX    0.002526  -0.002526  -0.000833  -0.001666   0.000833
   61  H  3 YY   -0.005052  -0.002526   0.001666   0.000833   0.000833
   62  H  3 ZZ    0.002526   0.005052  -0.000833   0.000833  -0.001666
   63  H  3 XY    0.009208  -0.017654   0.014124  -0.014124  -0.026555
   64  H  3 XZ   -0.017654   0.009208  -0.026555   0.014124   0.014124
   65  H  3 YZ    0.009208  -0.009208   0.014124  -0.026555  -0.014124
   66  H  4  S    0.042099  -0.042099  -0.083933  -0.083933   0.083933
   67  H  4  S    1.042431  -1.042431   0.473952   0.473952  -0.473952
   68  H  4  S    0.234785  -0.234785   1.768044   1.768044  -1.768044
   69  H  4  X    0.005825  -0.005825  -0.003974   0.007467   0.003974
   70  H  4  Y    0.022424  -0.005825   0.007467  -0.003974   0.003974
   71  H  4  Z   -0.005825   0.022424   0.003974   0.003974   0.007467
   72  H  4  X    0.126314  -0.126314   0.361619   0.192344  -0.361619
   73  H  4  Y    0.119101  -0.126314   0.192344   0.361619  -0.361619
   74  H  4  Z   -0.126314   0.119101  -0.361619  -0.361619   0.192344
   75  H  4 XX   -0.002526   0.002526   0.000833  -0.001666  -0.000833
   76  H  4 YY    0.005052   0.002526  -0.001666   0.000833  -0.000833
   77  H  4 ZZ   -0.002526  -0.005052   0.000833   0.000833   0.001666
   78  H  4 XY    0.009208  -0.017654   0.014124   0.014124  -0.026555
   79  H  4 XZ   -0.017654   0.009208  -0.026555  -0.014124   0.014124
   80  H  4 YZ   -0.009208   0.009208  -0.014124  -0.026555   0.014124
   81  H  5  S   -0.042099  -0.042099   0.083933   0.083933   0.083933
   82  H  5  S   -1.042431  -1.042431  -0.473952  -0.473952  -0.473952
   83  H  5  S   -0.234785  -0.234785  -1.768044  -1.768044  -1.768044
   84  H  5  X    0.005825   0.005825  -0.003974   0.007467  -0.003974
   85  H  5  Y    0.022424   0.005825   0.007467  -0.003974  -0.003974
   86  H  5  Z    0.005825   0.022424  -0.003974  -0.003974   0.007467
   87  H  5  X    0.126314   0.126314   0.361619   0.192344   0.361619
   88  H  5  Y    0.119101   0.126314   0.192344   0.361619   0.361619
   89  H  5  Z    0.126314   0.119101   0.361619   0.361619   0.192344
   90  H  5 XX    0.002526   0.002526  -0.000833   0.001666  -0.000833
   91  H  5 YY   -0.005052   0.002526   0.001666  -0.000833  -0.000833
   92  H  5 ZZ    0.002526  -0.005052  -0.000833  -0.000833   0.001666
   93  H  5 XY   -0.009208  -0.017654  -0.014124  -0.014124  -0.026555
   94  H  5 XZ   -0.017654  -0.009208  -0.026555  -0.014124  -0.014124
   95  H  5 YZ   -0.009208  -0.009208  -0.014124  -0.026555  -0.014124

                     16         17         18         19         20
                    0.4721     0.5085     0.5085     0.5879     0.8801
                     A1         E          E          A1         T1  
    1  C  1  S    0.055655   0.000000   0.000000   0.005035   0.000000
    2  C  1  S   -0.329795   0.000000   0.000000  -0.056317   0.000000
    3  C  1  S   -0.170031   0.000000   0.000000  -0.181560   0.000000
    4  C  1  S    5.570640   0.000000   0.000000   7.714138   0.000000
    5  C  1  X    0.000000   0.000000   0.000000   0.000000   0.000000
    6  C  1  Y    0.000000   0.000000   0.000000   0.000000   0.000000
    7  C  1  Z    0.000000   0.000000   0.000000   0.000000   0.000000
    8  C  1  X    0.000000   0.000000   0.000000   0.000000   0.000000
    9  C  1  Y    0.000000   0.000000   0.000000   0.000000   0.000000
   10  C  1  Z    0.000000   0.000000   0.000000   0.000000   0.000000
   11  C  1  X    0.000000   0.000000   0.000000   0.000000   0.000000
   12  C  1  Y    0.000000   0.000000   0.000000   0.000000   0.000000
   13  C  1  Z    0.000000   0.000000   0.000000   0.000000   0.000000
   14  C  1 XX    0.000000   0.010662   0.018467   0.000000   0.000000
   15  C  1 YY    0.000000   0.010662  -0.018467   0.000000   0.000000
   16  C  1 ZZ    0.000000  -0.021324   0.000000   0.000000   0.000000
   17  C  1 XY    0.000000   0.000000   0.000000   0.000000   0.000000
   18  C  1 XZ    0.000000   0.000000   0.000000   0.000000   0.000000
   19  C  1 YZ    0.000000   0.000000   0.000000   0.000000   0.000000
   20  C  1 XX    0.000000   0.052747   0.091361   0.000000   0.000000
   21  C  1 YY    0.000000   0.052747  -0.091361   0.000000   0.000000
   22  C  1 ZZ    0.000000  -0.105495   0.000000   0.000000   0.000000
   23  C  1 XY    0.000000   0.000000   0.000000   0.000000   0.000000
   24  C  1 XZ    0.000000   0.000000   0.000000   0.000000   0.000000
   25  C  1 YZ    0.000000   0.000000   0.000000   0.000000   0.000000
   26  C  1 XXX   0.000000   0.000000   0.000000   0.000000   0.000000
   27  C  1 YYY   0.000000   0.000000   0.000000   0.000000   0.000000
   28  C  1 ZZZ   0.000000   0.000000   0.000000   0.000000   0.000000
   29  C  1 XXY   0.000000   0.000000   0.000000   0.000000   0.000000
   30  C  1 XXZ   0.000000   0.000000   0.000000   0.000000   0.000000
   31  C  1 YYX   0.000000   0.000000   0.000000   0.000000   0.064260
   32  C  1 YYZ   0.000000   0.000000   0.000000   0.000000   0.000000
   33  C  1 ZZX   0.000000   0.000000   0.000000   0.000000  -0.064260
   34  C  1 ZZY   0.000000   0.000000   0.000000   0.000000   0.000000
   35  C  1 XYZ   0.084836   0.000000   0.000000   0.141216   0.000000
   36  H  2  S    0.095935   0.000000   0.000000  -0.042919   0.000000
   37  H  2  S   -0.341824   0.000000   0.000000  -1.710190   0.000000
   38  H  2  S   -1.190521   0.000000   0.000000  -0.924140   0.000000
   39  H  2  X    0.000648  -0.011173  -0.019352   0.018328   0.000000
   40  H  2  Y   -0.000648   0.011173  -0.019352  -0.018328  -0.025149
   41  H  2  Z   -0.000648  -0.022346   0.000000  -0.018328   0.025149
   42  H  2  X    0.319200   0.176703   0.306058   0.192901   0.000000
   43  H  2  Y   -0.319200  -0.176703   0.306058  -0.192901   0.477275
   44  H  2  Z   -0.319200   0.353405   0.000000  -0.192901  -0.477275
   45  H  2 XX    0.000000  -0.000692  -0.001199   0.000000   0.000000
   46  H  2 YY    0.000000  -0.000692   0.001199   0.000000   0.016285
   47  H  2 ZZ    0.000000   0.001385   0.000000   0.000000  -0.016285
   48  H  2 XY    0.018881   0.011916   0.000000   0.024335   0.000703
   49  H  2 XZ    0.018881  -0.005958   0.010320   0.024335  -0.000703
   50  H  2 YZ   -0.018881   0.005958   0.010320  -0.024335   0.000000
   51  H  3  S    0.095935   0.000000   0.000000  -0.042919   0.000000
   52  H  3  S   -0.341824   0.000000   0.000000  -1.710190   0.000000
   53  H  3  S   -1.190521   0.000000   0.000000  -0.924140   0.000000
   54  H  3  X   -0.000648   0.011173   0.019352  -0.018328   0.000000
   55  H  3  Y    0.000648  -0.011173   0.019352   0.018328  -0.025149
   56  H  3  Z   -0.000648  -0.022346   0.000000  -0.018328  -0.025149
   57  H  3  X   -0.319200  -0.176703  -0.306058  -0.192901   0.000000
   58  H  3  Y    0.319200   0.176703  -0.306058   0.192901   0.477275
   59  H  3  Z   -0.319200   0.353405   0.000000  -0.192901   0.477275
   60  H  3 XX    0.000000  -0.000692  -0.001199   0.000000   0.000000
   61  H  3 YY    0.000000  -0.000692   0.001199   0.000000  -0.016285
   62  H  3 ZZ    0.000000   0.001385   0.000000   0.000000   0.016285
   63  H  3 XY    0.018881   0.011916   0.000000   0.024335  -0.000703
   64  H  3 XZ   -0.018881   0.005958  -0.010320  -0.024335  -0.000703
   65  H  3 YZ    0.018881  -0.005958  -0.010320   0.024335   0.000000
   66  H  4  S    0.095935   0.000000   0.000000  -0.042919   0.000000
   67  H  4  S   -0.341824   0.000000   0.000000  -1.710190   0.000000
   68  H  4  S   -1.190521   0.000000   0.000000  -0.924140   0.000000
   69  H  4  X   -0.000648   0.011173   0.019352  -0.018328   0.000000
   70  H  4  Y   -0.000648   0.011173  -0.019352  -0.018328   0.025149
   71  H  4  Z    0.000648   0.022346   0.000000   0.018328   0.025149
   72  H  4  X   -0.319200  -0.176703  -0.306058  -0.192901   0.000000
   73  H  4  Y   -0.319200  -0.176703   0.306058  -0.192901  -0.477275
   74  H  4  Z    0.319200  -0.353405   0.000000   0.192901  -0.477275
   75  H  4 XX    0.000000  -0.000692  -0.001199   0.000000   0.000000
   76  H  4 YY    0.000000  -0.000692   0.001199   0.000000  -0.016285
   77  H  4 ZZ    0.000000   0.001385   0.000000   0.000000   0.016285
   78  H  4 XY   -0.018881  -0.011916   0.000000  -0.024335   0.000703
   79  H  4 XZ    0.018881  -0.005958   0.010320   0.024335   0.000703
   80  H  4 YZ    0.018881  -0.005958  -0.010320   0.024335   0.000000
   81  H  5  S    0.095935   0.000000   0.000000  -0.042919   0.000000
   82  H  5  S   -0.341824   0.000000   0.000000  -1.710190   0.000000
   83  H  5  S   -1.190521   0.000000   0.000000  -0.924140   0.000000
   84  H  5  X    0.000648  -0.011173  -0.019352   0.018328   0.000000
   85  H  5  Y    0.000648  -0.011173   0.019352   0.018328   0.025149
   86  H  5  Z    0.000648   0.022346   0.000000   0.018328  -0.025149
   87  H  5  X    0.319200   0.176703   0.306058   0.192901   0.000000
   88  H  5  Y    0.319200   0.176703  -0.306058   0.192901  -0.477275
   89  H  5  Z    0.319200  -0.353405   0.000000   0.192901   0.477275
   90  H  5 XX    0.000000  -0.000692  -0.001199   0.000000   0.000000
   91  H  5 YY    0.000000  -0.000692   0.001199   0.000000   0.016285
   92  H  5 ZZ    0.000000   0.001385   0.000000   0.000000  -0.016285
   93  H  5 XY   -0.018881  -0.011916   0.000000  -0.024335  -0.000703
   94  H  5 XZ   -0.018881   0.005958  -0.010320  -0.024335   0.000703
   95  H  5 YZ   -0.018881   0.005958   0.010320  -0.024335   0.000000

                     21         22         23         24         25
                    0.8801     0.8801     0.9615     0.9615     0.9615
                     T1         T1         T2         T2         T2  
    1  C  1  S    0.000000   0.000000   0.000000   0.000000   0.000000
    2  C  1  S    0.000000   0.000000   0.000000   0.000000   0.000000
    3  C  1  S    0.000000   0.000000   0.000000   0.000000   0.000000
    4  C  1  S    0.000000   0.000000   0.000000   0.000000   0.000000
    5  C  1  X    0.000000   0.000000   0.140142   0.000000   0.000000
    6  C  1  Y    0.000000   0.000000   0.000000   0.140142   0.000000
    7  C  1  Z    0.000000   0.000000   0.000000   0.000000   0.140142
    8  C  1  X    0.000000   0.000000   1.574468   0.000000   0.000000
    9  C  1  Y    0.000000   0.000000   0.000000   1.574468   0.000000
   10  C  1  Z    0.000000   0.000000   0.000000   0.000000   1.574468
   11  C  1  X    0.000000   0.000000   1.933825   0.000000   0.000000
   12  C  1  Y    0.000000   0.000000   0.000000   1.933825   0.000000
   13  C  1  Z    0.000000   0.000000   0.000000   0.000000   1.933825
   14  C  1 XX    0.000000   0.000000   0.000000   0.000000   0.000000
   15  C  1 YY    0.000000   0.000000   0.000000   0.000000   0.000000
   16  C  1 ZZ    0.000000   0.000000   0.000000   0.000000   0.000000
   17  C  1 XY    0.000000   0.000000   0.000000   0.000000   0.034035
   18  C  1 XZ    0.000000   0.000000   0.000000   0.034035   0.000000
   19  C  1 YZ    0.000000   0.000000   0.034035   0.000000   0.000000
   20  C  1 XX    0.000000   0.000000   0.000000   0.000000   0.000000
   21  C  1 YY    0.000000   0.000000   0.000000   0.000000   0.000000
   22  C  1 ZZ    0.000000   0.000000   0.000000   0.000000   0.000000
   23  C  1 XY    0.000000   0.000000   0.000000   0.000000   2.137671
   24  C  1 XZ    0.000000   0.000000   0.000000   2.137671   0.000000
   25  C  1 YZ    0.000000   0.000000   2.137671   0.000000   0.000000
   26  C  1 XXX   0.000000   0.000000  -0.118657   0.000000   0.000000
   27  C  1 YYY   0.000000   0.000000   0.000000  -0.118657   0.000000
   28  C  1 ZZZ   0.000000   0.000000   0.000000   0.000000  -0.118657
   29  C  1 XXY   0.064260   0.000000   0.000000   0.079598   0.000000
   30  C  1 XXZ   0.000000   0.064260   0.000000   0.000000   0.079598
   31  C  1 YYX   0.000000   0.000000   0.079598   0.000000   0.000000
   32  C  1 YYZ   0.000000  -0.064260   0.000000   0.000000   0.079598
   33  C  1 ZZX   0.000000   0.000000   0.079598   0.000000   0.000000
   34  C  1 ZZY  -0.064260   0.000000   0.000000   0.079598   0.000000
   35  C  1 XYZ   0.000000   0.000000   0.000000   0.000000   0.000000
   36  H  2  S    0.000000   0.000000   0.042713  -0.042713  -0.042713
   37  H  2  S    0.000000   0.000000  -2.036346   2.036346   2.036346
   38  H  2  S    0.000000   0.000000  -0.221176   0.221176   0.221176
   39  H  2  X   -0.025149  -0.025149   0.036226  -0.020017  -0.020017
   40  H  2  Y    0.000000  -0.025149  -0.020017   0.036226   0.020017
   41  H  2  Z   -0.025149   0.000000  -0.020017   0.020017   0.036226
   42  H  2  X    0.477275   0.477275   0.087624  -0.214220  -0.214220
   43  H  2  Y    0.000000   0.477275  -0.214220   0.087624   0.214220
   44  H  2  Z    0.477275   0.000000  -0.214220   0.214220   0.087624
   45  H  2 XX   -0.016285  -0.016285  -0.018302  -0.009151  -0.009151
   46  H  2 YY    0.000000   0.016285   0.009151   0.018302  -0.009151
   47  H  2 ZZ    0.016285   0.000000   0.009151  -0.009151   0.018302
   48  H  2 XY   -0.000703   0.000000   0.025162  -0.025162  -0.008312
   49  H  2 XZ    0.000000  -0.000703   0.025162  -0.008312  -0.025162
   50  H  2 YZ   -0.000703  -0.000703  -0.008312   0.025162   0.025162
   51  H  3  S    0.000000   0.000000  -0.042713   0.042713  -0.042713
   52  H  3  S    0.000000   0.000000   2.036346  -2.036346   2.036346
   53  H  3  S    0.000000   0.000000   0.221176  -0.221176   0.221176
   54  H  3  X   -0.025149   0.025149   0.036226  -0.020017   0.020017
   55  H  3  Y    0.000000   0.025149  -0.020017   0.036226  -0.020017
   56  H  3  Z    0.025149   0.000000   0.020017  -0.020017   0.036226
   57  H  3  X    0.477275  -0.477275   0.087624  -0.214220   0.214220
   58  H  3  Y    0.000000  -0.477275  -0.214220   0.087624  -0.214220
   59  H  3  Z   -0.477275   0.000000   0.214220  -0.214220   0.087624
   60  H  3 XX    0.016285  -0.016285   0.018302   0.009151  -0.009151
   61  H  3 YY    0.000000   0.016285  -0.009151  -0.018302  -0.009151
   62  H  3 ZZ   -0.016285   0.000000  -0.009151   0.009151   0.018302
   63  H  3 XY    0.000703   0.000000  -0.025162   0.025162  -0.008312
   64  H  3 XZ    0.000000   0.000703   0.025162  -0.008312   0.025162
   65  H  3 YZ   -0.000703   0.000703  -0.008312   0.025162  -0.025162
   66  H  4  S    0.000000   0.000000  -0.042713  -0.042713   0.042713
   67  H  4  S    0.000000   0.000000   2.036346   2.036346  -2.036346
   68  H  4  S    0.000000   0.000000   0.221176   0.221176  -0.221176
   69  H  4  X    0.025149  -0.025149   0.036226   0.020017  -0.020017
   70  H  4  Y    0.000000   0.025149   0.020017   0.036226  -0.020017
   71  H  4  Z    0.025149   0.000000  -0.020017  -0.020017   0.036226
   72  H  4  X   -0.477275   0.477275   0.087624   0.214220  -0.214220
   73  H  4  Y    0.000000  -0.477275   0.214220   0.087624  -0.214220
   74  H  4  Z   -0.477275   0.000000  -0.214220  -0.214220   0.087624
   75  H  4 XX   -0.016285   0.016285   0.018302  -0.009151   0.009151
   76  H  4 YY    0.000000  -0.016285  -0.009151   0.018302   0.009151
   77  H  4 ZZ    0.016285   0.000000  -0.009151  -0.009151  -0.018302
   78  H  4 XY    0.000703   0.000000   0.025162   0.025162  -0.008312
   79  H  4 XZ    0.000000   0.000703  -0.025162  -0.008312   0.025162
   80  H  4 YZ    0.000703  -0.000703  -0.008312  -0.025162   0.025162
   81  H  5  S    0.000000   0.000000   0.042713   0.042713   0.042713
   82  H  5  S    0.000000   0.000000  -2.036346  -2.036346  -2.036346
   83  H  5  S    0.000000   0.000000  -0.221176  -0.221176  -0.221176
   84  H  5  X    0.025149   0.025149   0.036226   0.020017   0.020017
   85  H  5  Y    0.000000  -0.025149   0.020017   0.036226   0.020017
   86  H  5  Z   -0.025149   0.000000   0.020017   0.020017   0.036226
   87  H  5  X   -0.477275  -0.477275   0.087624   0.214220   0.214220
   88  H  5  Y    0.000000   0.477275   0.214220   0.087624   0.214220
   89  H  5  Z    0.477275   0.000000   0.214220   0.214220   0.087624
   90  H  5 XX    0.016285   0.016285  -0.018302   0.009151   0.009151
   91  H  5 YY    0.000000  -0.016285   0.009151  -0.018302   0.009151
   92  H  5 ZZ   -0.016285   0.000000   0.009151   0.009151  -0.018302
   93  H  5 XY   -0.000703   0.000000  -0.025162  -0.025162  -0.008312
   94  H  5 XZ    0.000000  -0.000703  -0.025162  -0.008312  -0.025162
   95  H  5 YZ    0.000703   0.000703  -0.008312  -0.025162  -0.025162

                     26         27         28         29         30
                    1.1239     1.1239     1.1239     1.3152     1.3152
                     T2         T2         T2         T2         T2  
    1  C  1  S    0.000000   0.000000   0.000000   0.000000   0.000000
    2  C  1  S    0.000000   0.000000   0.000000   0.000000   0.000000
    3  C  1  S    0.000000   0.000000   0.000000   0.000000   0.000000
    4  C  1  S    0.000000   0.000000   0.000000   0.000000   0.000000
    5  C  1  X    0.000000   0.168479   0.000000   0.280845   0.000000
    6  C  1  Y    0.168479   0.000000   0.000000   0.000000   0.280845
    7  C  1  Z    0.000000   0.000000   0.168479   0.000000   0.000000
    8  C  1  X    0.000000   0.387664   0.000000   4.456478   0.000000
    9  C  1  Y    0.387664   0.000000   0.000000   0.000000   4.456478
   10  C  1  Z    0.000000   0.000000   0.387664   0.000000   0.000000
   11  C  1  X    0.000000   1.651862   0.000000   2.051463   0.000000
   12  C  1  Y    1.651862   0.000000   0.000000   0.000000   2.051463
   13  C  1  Z    0.000000   0.000000   1.651862   0.000000   0.000000
   14  C  1 XX    0.000000   0.000000   0.000000   0.000000   0.000000
   15  C  1 YY    0.000000   0.000000   0.000000   0.000000   0.000000
   16  C  1 ZZ    0.000000   0.000000   0.000000   0.000000   0.000000
   17  C  1 XY    0.000000   0.000000   0.036135   0.000000   0.000000
   18  C  1 XZ    0.036135   0.000000   0.000000   0.000000   0.084057
   19  C  1 YZ    0.000000   0.036135   0.000000   0.084057   0.000000
   20  C  1 XX    0.000000   0.000000   0.000000   0.000000   0.000000
   21  C  1 YY    0.000000   0.000000   0.000000   0.000000   0.000000
   22  C  1 ZZ    0.000000   0.000000   0.000000   0.000000   0.000000
   23  C  1 XY    0.000000   0.000000  -1.239363   0.000000   0.000000
   24  C  1 XZ   -1.239363   0.000000   0.000000   0.000000   2.421826
   25  C  1 YZ    0.000000  -1.239363   0.000000   2.421826   0.000000
   26  C  1 XXX   0.000000   0.075684   0.000000  -0.140786   0.000000
   27  C  1 YYY   0.075684   0.000000   0.000000   0.000000  -0.140786
   28  C  1 ZZZ   0.000000   0.000000   0.075684   0.000000   0.000000
   29  C  1 XXY  -0.050771   0.000000   0.000000   0.000000   0.094442
   30  C  1 XXZ   0.000000   0.000000  -0.050771   0.000000   0.000000
   31  C  1 YYX   0.000000  -0.050771   0.000000   0.094442   0.000000
   32  C  1 YYZ   0.000000   0.000000  -0.050771   0.000000   0.000000
   33  C  1 ZZX   0.000000  -0.050771   0.000000   0.094442   0.000000
   34  C  1 ZZY  -0.050771   0.000000   0.000000   0.000000   0.094442
   35  C  1 XYZ   0.000000   0.000000   0.000000   0.000000   0.000000
   36  H  2  S   -0.013489   0.013489  -0.013489  -0.030950   0.030950
   37  H  2  S   -0.144787   0.144787  -0.144787  -3.215156   3.215156
   38  H  2  S    0.587468  -0.587468   0.587468  -1.074497   1.074497
   39  H  2  X    0.039501   0.023702   0.039501  -0.011324   0.018476
   40  H  2  Y    0.023702   0.039501  -0.039501   0.018476  -0.011324
   41  H  2  Z   -0.039501   0.039501   0.023702   0.018476  -0.018476
   42  H  2  X   -0.417461  -0.809841  -0.417461   1.287983  -1.198808
   43  H  2  Y   -0.809841  -0.417461   0.417461  -1.198808   1.287983
   44  H  2  Z    0.417461  -0.417461  -0.809841  -1.198808   1.198808
   45  H  2 XX    0.010866   0.021731   0.010866  -0.007036  -0.003518
   46  H  2 YY   -0.021731  -0.010866   0.010866   0.003518   0.007036
   47  H  2 ZZ    0.010866  -0.010866  -0.021731   0.003518  -0.003518
   48  H  2 XY    0.012918  -0.012918  -0.028456   0.051909  -0.051909
   49  H  2 XZ   -0.028456  -0.012918   0.012918   0.051909  -0.073408
   50  H  2 YZ   -0.012918  -0.028456  -0.012918  -0.073408   0.051909
   51  H  3  S    0.013489  -0.013489  -0.013489   0.030950  -0.030950
   52  H  3  S    0.144787  -0.144787  -0.144787   3.215156  -3.215156
   53  H  3  S   -0.587468   0.587468   0.587468   1.074497  -1.074497
   54  H  3  X    0.039501   0.023702  -0.039501  -0.011324   0.018476
   55  H  3  Y    0.023702   0.039501   0.039501   0.018476  -0.011324
   56  H  3  Z    0.039501  -0.039501   0.023702  -0.018476   0.018476
   57  H  3  X   -0.417461  -0.809841   0.417461   1.287983  -1.198808
   58  H  3  Y   -0.809841  -0.417461  -0.417461  -1.198808   1.287983
   59  H  3  Z   -0.417461   0.417461  -0.809841   1.198808  -1.198808
   60  H  3 XX   -0.010866  -0.021731   0.010866   0.007036   0.003518
   61  H  3 YY    0.021731   0.010866   0.010866  -0.003518  -0.007036
   62  H  3 ZZ   -0.010866   0.010866  -0.021731  -0.003518   0.003518
   63  H  3 XY   -0.012918   0.012918  -0.028456  -0.051909   0.051909
   64  H  3 XZ   -0.028456  -0.012918  -0.012918   0.051909  -0.073408
   65  H  3 YZ   -0.012918  -0.028456   0.012918  -0.073408   0.051909
   66  H  4  S   -0.013489  -0.013489   0.013489   0.030950   0.030950
   67  H  4  S   -0.144787  -0.144787   0.144787   3.215156   3.215156
   68  H  4  S    0.587468   0.587468  -0.587468   1.074497   1.074497
   69  H  4  X   -0.039501   0.023702   0.039501  -0.011324  -0.018476
   70  H  4  Y    0.023702  -0.039501   0.039501  -0.018476  -0.011324
   71  H  4  Z    0.039501   0.039501   0.023702   0.018476   0.018476
   72  H  4  X    0.417461  -0.809841  -0.417461   1.287983   1.198808
   73  H  4  Y   -0.809841   0.417461  -0.417461   1.198808   1.287983
   74  H  4  Z   -0.417461  -0.417461  -0.809841  -1.198808  -1.198808
   75  H  4 XX    0.010866  -0.021731  -0.010866   0.007036  -0.003518
   76  H  4 YY   -0.021731   0.010866  -0.010866  -0.003518   0.007036
   77  H  4 ZZ    0.010866   0.010866   0.021731  -0.003518  -0.003518
   78  H  4 XY   -0.012918  -0.012918  -0.028456   0.051909   0.051909
   79  H  4 XZ   -0.028456   0.012918  -0.012918  -0.051909  -0.073408
   80  H  4 YZ    0.012918  -0.028456  -0.012918  -0.073408  -0.051909
   81  H  5  S    0.013489   0.013489   0.013489  -0.030950  -0.030950
   82  H  5  S    0.144787   0.144787   0.144787  -3.215156  -3.215156
   83  H  5  S   -0.587468  -0.587468  -0.587468  -1.074497  -1.074497
   84  H  5  X   -0.039501   0.023702  -0.039501  -0.011324  -0.018476
   85  H  5  Y    0.023702  -0.039501  -0.039501  -0.018476  -0.011324
   86  H  5  Z   -0.039501  -0.039501   0.023702  -0.018476  -0.018476
   87  H  5  X    0.417461  -0.809841   0.417461   1.287983   1.198808
   88  H  5  Y   -0.809841   0.417461   0.417461   1.198808   1.287983
   89  H  5  Z    0.417461   0.417461  -0.809841   1.198808   1.198808
   90  H  5 XX   -0.010866   0.021731  -0.010866  -0.007036   0.003518
   91  H  5 YY    0.021731  -0.010866  -0.010866   0.003518  -0.007036
   92  H  5 ZZ   -0.010866  -0.010866   0.021731   0.003518   0.003518
   93  H  5 XY    0.012918   0.012918  -0.028456  -0.051909  -0.051909
   94  H  5 XZ   -0.028456   0.012918   0.012918  -0.051909  -0.073408
   95  H  5 YZ    0.012918  -0.028456   0.012918  -0.073408  -0.051909

                     31         32         33         34         35
                    1.3152     1.3909     1.3909     1.5351     2.1157
                     T2         E          E          A1         T2  
    1  C  1  S    0.000000   0.000000   0.000000   0.423307   0.000000
    2  C  1  S    0.000000   0.000000   0.000000   1.473903   0.000000
    3  C  1  S    0.000000   0.000000   0.000000   0.878015   0.000000
    4  C  1  S    0.000000   0.000000   0.000000   3.685764   0.000000
    5  C  1  X    0.000000   0.000000   0.000000   0.000000   0.000000
    6  C  1  Y    0.000000   0.000000   0.000000   0.000000  -0.022758
    7  C  1  Z    0.280845   0.000000   0.000000   0.000000   0.000000
    8  C  1  X    0.000000   0.000000   0.000000   0.000000   0.000000
    9  C  1  Y    0.000000   0.000000   0.000000   0.000000   1.831323
   10  C  1  Z    4.456478   0.000000   0.000000   0.000000   0.000000
   11  C  1  X    0.000000   0.000000   0.000000   0.000000   0.000000
   12  C  1  Y    0.000000   0.000000   0.000000   0.000000   0.291798
   13  C  1  Z    2.051463   0.000000   0.000000   0.000000   0.000000
   14  C  1 XX    0.000000  -0.009309   0.016124   0.000000   0.000000
   15  C  1 YY    0.000000  -0.009309  -0.016124   0.000000   0.000000
   16  C  1 ZZ    0.000000   0.018618   0.000000   0.000000   0.000000
   17  C  1 XY    0.084057   0.000000   0.000000   0.000000   0.000000
   18  C  1 XZ    0.000000   0.000000   0.000000   0.000000   0.318921
   19  C  1 YZ    0.000000   0.000000   0.000000   0.000000   0.000000
   20  C  1 XX    0.000000  -1.385576   2.399889   0.000000   0.000000
   21  C  1 YY    0.000000  -1.385576  -2.399889   0.000000   0.000000
   22  C  1 ZZ    0.000000   2.771153   0.000000   0.000000   0.000000
   23  C  1 XY    2.421826   0.000000   0.000000   0.000000   0.000000
   24  C  1 XZ    0.000000   0.000000   0.000000   0.000000   0.596683
   25  C  1 YZ    0.000000   0.000000   0.000000   0.000000   0.000000
   26  C  1 XXX   0.000000   0.000000   0.000000   0.000000   0.000000
   27  C  1 YYY   0.000000   0.000000   0.000000   0.000000  -0.458276
   28  C  1 ZZZ  -0.140786   0.000000   0.000000   0.000000   0.000000
   29  C  1 XXY   0.000000   0.000000   0.000000   0.000000   0.307421
   30  C  1 XXZ   0.094442   0.000000   0.000000   0.000000   0.000000
   31  C  1 YYX   0.000000   0.000000   0.000000   0.000000   0.000000
   32  C  1 YYZ   0.094442   0.000000   0.000000   0.000000   0.000000
   33  C  1 ZZX   0.000000   0.000000   0.000000   0.000000   0.000000
   34  C  1 ZZY   0.000000   0.000000   0.000000   0.000000   0.307421
   35  C  1 XYZ   0.000000   0.000000   0.000000  -0.217418   0.000000
   36  H  2  S    0.030950   0.000000   0.000000  -0.201568  -0.582601
   37  H  2  S    3.215156   0.000000   0.000000  -0.740230   1.916965
   38  H  2  S    1.074497   0.000000   0.000000  -0.689559  -0.267979
   39  H  2  X    0.018476  -0.033589   0.058178  -0.079778  -0.024004
   40  H  2  Y   -0.018476   0.033589   0.058178   0.079778   0.007191
   41  H  2  Z   -0.011324  -0.067178   0.000000   0.079778   0.024004
   42  H  2  X   -1.198808   0.522923  -0.905728   0.552443  -0.374931
   43  H  2  Y    1.198808  -0.522923  -0.905728  -0.552443   0.481608
   44  H  2  Z    1.287983   1.045845   0.000000  -0.552443   0.374931
   45  H  2 XX   -0.003518  -0.023256   0.040281   0.000000  -0.009461
   46  H  2 YY   -0.003518  -0.023256  -0.040281   0.000000   0.018922
   47  H  2 ZZ    0.007036   0.046513   0.000000   0.000000  -0.009461
   48  H  2 XY   -0.073408   0.027796   0.000000  -0.027033   0.002644
   49  H  2 XZ   -0.051909  -0.013898  -0.024072  -0.027033  -0.104851
   50  H  2 YZ    0.051909   0.013898  -0.024072   0.027033  -0.002644
   51  H  3  S    0.030950   0.000000   0.000000  -0.201568   0.582601
   52  H  3  S    3.215156   0.000000   0.000000  -0.740230  -1.916965
   53  H  3  S    1.074497   0.000000   0.000000  -0.689559   0.267979
   54  H  3  X   -0.018476   0.033589  -0.058178   0.079778  -0.024004
   55  H  3  Y    0.018476  -0.033589  -0.058178  -0.079778   0.007191
   56  H  3  Z   -0.011324  -0.067178   0.000000   0.079778  -0.024004
   57  H  3  X    1.198808  -0.522923   0.905728  -0.552443  -0.374931
   58  H  3  Y   -1.198808   0.522923   0.905728   0.552443   0.481608
   59  H  3  Z    1.287983   1.045845   0.000000  -0.552443  -0.374931
   60  H  3 XX   -0.003518  -0.023256   0.040281   0.000000   0.009461
   61  H  3 YY   -0.003518  -0.023256  -0.040281   0.000000  -0.018922
   62  H  3 ZZ    0.007036   0.046513   0.000000   0.000000   0.009461
   63  H  3 XY   -0.073408   0.027796   0.000000  -0.027033  -0.002644
   64  H  3 XZ    0.051909   0.013898   0.024072   0.027033  -0.104851
   65  H  3 YZ   -0.051909  -0.013898   0.024072  -0.027033  -0.002644
   66  H  4  S   -0.030950   0.000000   0.000000  -0.201568  -0.582601
   67  H  4  S   -3.215156   0.000000   0.000000  -0.740230   1.916965
   68  H  4  S   -1.074497   0.000000   0.000000  -0.689559  -0.267979
   69  H  4  X    0.018476   0.033589  -0.058178   0.079778   0.024004
   70  H  4  Y    0.018476   0.033589   0.058178   0.079778   0.007191
   71  H  4  Z   -0.011324   0.067178   0.000000  -0.079778  -0.024004
   72  H  4  X   -1.198808  -0.522923   0.905728  -0.552443   0.374931
   73  H  4  Y   -1.198808  -0.522923  -0.905728  -0.552443   0.481608
   74  H  4  Z    1.287983  -1.045845   0.000000   0.552443  -0.374931
   75  H  4 XX    0.003518  -0.023256   0.040281   0.000000  -0.009461
   76  H  4 YY    0.003518  -0.023256  -0.040281   0.000000   0.018922
   77  H  4 ZZ   -0.007036   0.046513   0.000000   0.000000  -0.009461
   78  H  4 XY   -0.073408  -0.027796   0.000000   0.027033  -0.002644
   79  H  4 XZ    0.051909  -0.013898  -0.024072  -0.027033  -0.104851
   80  H  4 YZ    0.051909  -0.013898   0.024072  -0.027033   0.002644
   81  H  5  S   -0.030950   0.000000   0.000000  -0.201568   0.582601
   82  H  5  S   -3.215156   0.000000   0.000000  -0.740230  -1.916965
   83  H  5  S   -1.074497   0.000000   0.000000  -0.689559   0.267979
   84  H  5  X   -0.018476  -0.033589   0.058178  -0.079778   0.024004
   85  H  5  Y   -0.018476  -0.033589  -0.058178  -0.079778   0.007191
   86  H  5  Z   -0.011324   0.067178   0.000000  -0.079778   0.024004
   87  H  5  X    1.198808   0.522923  -0.905728   0.552443   0.374931
   88  H  5  Y    1.198808   0.522923   0.905728   0.552443   0.481608
   89  H  5  Z    1.287983  -1.045845   0.000000   0.552443   0.374931
   90  H  5 XX    0.003518  -0.023256   0.040281   0.000000   0.009461
   91  H  5 YY    0.003518  -0.023256  -0.040281   0.000000  -0.018922
   92  H  5 ZZ   -0.007036   0.046513   0.000000   0.000000   0.009461
   93  H  5 XY   -0.073408  -0.027796   0.000000   0.027033   0.002644
   94  H  5 XZ   -0.051909   0.013898   0.024072   0.027033  -0.104851
   95  H  5 YZ   -0.051909   0.013898  -0.024072   0.027033   0.002644

                     36         37         38         39         40
                    2.1157     2.1157     2.2665     2.6500     2.6500
                     T2         T2         A1         T2         T2  
    1  C  1  S    0.000000   0.000000   0.454487   0.000000   0.000000
    2  C  1  S    0.000000   0.000000   1.455224   0.000000   0.000000
    3  C  1  S    0.000000   0.000000   0.831248   0.000000   0.000000
    4  C  1  S    0.000000   0.000000   6.743217   0.000000   0.000000
    5  C  1  X    0.022758   0.000000   0.000000  -1.028161   0.000000
    6  C  1  Y    0.000000   0.000000   0.000000   0.000000  -1.028161
    7  C  1  Z    0.000000  -0.022758   0.000000   0.000000   0.000000
    8  C  1  X   -1.831323   0.000000   0.000000   5.013279   0.000000
    9  C  1  Y    0.000000   0.000000   0.000000   0.000000   5.013279
   10  C  1  Z    0.000000   1.831323   0.000000   0.000000   0.000000
   11  C  1  X   -0.291798   0.000000   0.000000   1.484101   0.000000
   12  C  1  Y    0.000000   0.000000   0.000000   0.000000   1.484101
   13  C  1  Z    0.000000   0.291798   0.000000   0.000000   0.000000
   14  C  1 XX    0.000000   0.000000   0.000000   0.000000   0.000000
   15  C  1 YY    0.000000   0.000000   0.000000   0.000000   0.000000
   16  C  1 ZZ    0.000000   0.000000   0.000000   0.000000   0.000000
   17  C  1 XY    0.000000   0.318921   0.000000   0.000000   0.000000
   18  C  1 XZ    0.000000   0.000000   0.000000   0.000000  -0.254082
   19  C  1 YZ   -0.318921   0.000000   0.000000  -0.254082   0.000000
   20  C  1 XX    0.000000   0.000000   0.000000   0.000000   0.000000
   21  C  1 YY    0.000000   0.000000   0.000000   0.000000   0.000000
   22  C  1 ZZ    0.000000   0.000000   0.000000   0.000000   0.000000
   23  C  1 XY    0.000000   0.596683   0.000000   0.000000   0.000000
   24  C  1 XZ    0.000000   0.000000   0.000000   0.000000   2.152195
   25  C  1 YZ   -0.596683   0.000000   0.000000   2.152195   0.000000
   26  C  1 XXX   0.458276   0.000000   0.000000  -0.163923   0.000000
   27  C  1 YYY   0.000000   0.000000   0.000000   0.000000  -0.163923
   28  C  1 ZZZ   0.000000  -0.458276   0.000000   0.000000   0.000000
   29  C  1 XXY   0.000000   0.000000   0.000000   0.000000   0.109963
   30  C  1 XXZ   0.000000   0.307421   0.000000   0.000000   0.000000
   31  C  1 YYX  -0.307421   0.000000   0.000000   0.109963   0.000000
   32  C  1 YYZ   0.000000   0.307421   0.000000   0.000000   0.000000
   33  C  1 ZZX  -0.307421   0.000000   0.000000   0.109963   0.000000
   34  C  1 ZZY   0.000000   0.000000   0.000000   0.000000   0.109963
   35  C  1 XYZ   0.000000   0.000000   0.670200   0.000000   0.000000
   36  H  2  S   -0.582601  -0.582601   0.490179   0.237033  -0.237033
   37  H  2  S    1.916965   1.916965  -2.445889  -3.245408   3.245408
   38  H  2  S   -0.267979  -0.267979  -0.694263  -0.258108   0.258108
   39  H  2  X   -0.007191  -0.024004   0.039807   0.179390  -0.071104
   40  H  2  Y    0.024004   0.024004  -0.039807  -0.071104   0.179390
   41  H  2  Z    0.024004   0.007191  -0.039807  -0.071104   0.071104
   42  H  2  X   -0.481608  -0.374931   0.473245   0.516735  -0.831238
   43  H  2  Y    0.374931   0.374931  -0.473245  -0.831238   0.516735
   44  H  2  Z    0.374931   0.481608  -0.473245  -0.831238   0.831238
   45  H  2 XX    0.018922  -0.009461   0.000000  -0.052570  -0.026285
   46  H  2 YY   -0.009461  -0.009461   0.000000   0.026285   0.052570
   47  H  2 ZZ   -0.009461   0.018922   0.000000   0.026285  -0.026285
   48  H  2 XY    0.002644  -0.104851   0.019585   0.127399  -0.127399
   49  H  2 XZ    0.002644   0.002644   0.019585   0.127399   0.018308
   50  H  2 YZ    0.104851  -0.002644  -0.019585   0.018308   0.127399
   51  H  3  S    0.582601  -0.582601   0.490179  -0.237033   0.237033
   52  H  3  S   -1.916965   1.916965  -2.445889   3.245408  -3.245408
   53  H  3  S    0.267979  -0.267979  -0.694263   0.258108  -0.258108
   54  H  3  X   -0.007191   0.024004  -0.039807   0.179390  -0.071104
   55  H  3  Y    0.024004  -0.024004   0.039807  -0.071104   0.179390
   56  H  3  Z   -0.024004   0.007191  -0.039807   0.071104  -0.071104
   57  H  3  X   -0.481608   0.374931  -0.473245   0.516735  -0.831238
   58  H  3  Y    0.374931  -0.374931   0.473245  -0.831238   0.516735
   59  H  3  Z   -0.374931   0.481608  -0.473245   0.831238  -0.831238
   60  H  3 XX   -0.018922  -0.009461   0.000000   0.052570   0.026285
   61  H  3 YY    0.009461  -0.009461   0.000000  -0.026285  -0.052570
   62  H  3 ZZ    0.009461   0.018922   0.000000  -0.026285   0.026285
   63  H  3 XY   -0.002644  -0.104851   0.019585  -0.127399   0.127399
   64  H  3 XZ    0.002644  -0.002644  -0.019585   0.127399   0.018308
   65  H  3 YZ    0.104851   0.002644   0.019585   0.018308   0.127399
   66  H  4  S    0.582601   0.582601   0.490179  -0.237033  -0.237033
   67  H  4  S   -1.916965  -1.916965  -2.445889   3.245408   3.245408
   68  H  4  S    0.267979   0.267979  -0.694263   0.258108   0.258108
   69  H  4  X   -0.007191  -0.024004  -0.039807   0.179390   0.071104
   70  H  4  Y   -0.024004  -0.024004  -0.039807   0.071104   0.179390
   71  H  4  Z    0.024004   0.007191   0.039807  -0.071104  -0.071104
   72  H  4  X   -0.481608  -0.374931  -0.473245   0.516735   0.831238
   73  H  4  Y   -0.374931  -0.374931  -0.473245   0.831238   0.516735
   74  H  4  Z    0.374931   0.481608   0.473245  -0.831238  -0.831238
   75  H  4 XX   -0.018922   0.009461   0.000000   0.052570  -0.026285
   76  H  4 YY    0.009461   0.009461   0.000000  -0.026285   0.052570
   77  H  4 ZZ    0.009461  -0.018922   0.000000  -0.026285  -0.026285
   78  H  4 XY    0.002644  -0.104851  -0.019585   0.127399   0.127399
   79  H  4 XZ   -0.002644  -0.002644   0.019585  -0.127399   0.018308
   80  H  4 YZ    0.104851  -0.002644   0.019585   0.018308  -0.127399
   81  H  5  S   -0.582601   0.582601   0.490179   0.237033   0.237033
   82  H  5  S    1.916965  -1.916965  -2.445889  -3.245408  -3.245408
   83  H  5  S   -0.267979   0.267979  -0.694263  -0.258108  -0.258108
   84  H  5  X   -0.007191   0.024004   0.039807   0.179390   0.071104
   85  H  5  Y   -0.024004   0.024004   0.039807   0.071104   0.179390
   86  H  5  Z   -0.024004   0.007191   0.039807   0.071104   0.071104
   87  H  5  X   -0.481608   0.374931   0.473245   0.516735   0.831238
   88  H  5  Y   -0.374931   0.374931   0.473245   0.831238   0.516735
   89  H  5  Z   -0.374931   0.481608   0.473245   0.831238   0.831238
   90  H  5 XX    0.018922   0.009461   0.000000  -0.052570   0.026285
   91  H  5 YY   -0.009461   0.009461   0.000000   0.026285  -0.052570
   92  H  5 ZZ   -0.009461  -0.018922   0.000000   0.026285   0.026285
   93  H  5 XY   -0.002644  -0.104851  -0.019585  -0.127399  -0.127399
   94  H  5 XZ   -0.002644   0.002644  -0.019585  -0.127399   0.018308
   95  H  5 YZ    0.104851   0.002644  -0.019585   0.018308  -0.127399

                     41         42         43         44         45
                    2.6500     2.8134     2.8134     2.8206     2.8206
                     T2         E          E          T1         T1  
[...]

                                                                                   NONZERO     BLOCKS
 ITER EX DEM     TOTAL ENERGY        E CHANGE  DENSITY CHANGE    DIIS ERROR      INTEGRALS    SKIPPED
          * * *   INITIATING DIIS PROCEDURE   * * *
   1  0  0      -40.5022108938   -40.5022108938   0.004914800   0.001814293        9919022          0
   2  1  0      -40.5022210834    -0.0000101896   0.000269719   0.000151302        9918891          3
 DFT CODE IS SWITCHING BACK TO THE FINE GRID
          * * *   INITIATING DIIS PROCEDURE   * * *
   3  2  0      -40.5022613292    -0.0000402458   0.004954347   0.001835159        9919022          0
   4  3  0      -40.5022698320    -0.0000085028   0.000260583   0.000201921        9919004          6
   5  4  0      -40.5022698352    -0.0000000032   0.000113262   0.000277579        9903708        290
   6  5  0      -40.5022700104    -0.0000001752   0.000011677   0.000011701        9872070        938
   7  6  0      -40.5022700107    -0.0000000002   0.000001494   0.000002722        9667610       2690
   8  7  0      -40.5022700107     0.0000000000   0.000000321   0.000000544        9183554       7359

          -----------------
          DENSITY CONVERGED
          -----------------
     TIME TO FORM FOCK OPERATORS=       7.2 SECONDS (       0.9 SEC/ITER)
     FOCK TIME ON FIRST ITERATION=       0.3, LAST ITERATION=       1.1
     TIME TO SOLVE SCF EQUATIONS=       0.0 SECONDS (       0.0 SEC/ITER)

 FINAL R-B3LYP ENERGY IS      -40.5022700107 AFTER   8 ITERATIONS
 DFT EXCHANGE + CORRELATION ENERGY =        -5.5600934184
 TOTAL ELECTRON NUMBER             =        10.0000317358
 ...... END OF RHF CALCULATION ......
 STEP CPU TIME =     7.27 TOTAL CPU TIME =        120.7 (      2.0 MIN)
 TOTAL WALL CLOCK TIME=        122.1 SECONDS, CPU UTILIZATION IS    98.84%
 ..... END OF 1-ELECTRON GRADIENT ......
 STEP CPU TIME =     0.01 TOTAL CPU TIME =        120.7 (      2.0 MIN)
 TOTAL WALL CLOCK TIME=        122.2 SECONDS, CPU UTILIZATION IS    98.84%
 MEMORY FOR GRID POINT CONTRIBUTIONS TO THE DFT GRADIENT=    386888 WORDS.
 STEP CPU TIME =     1.29 TOTAL CPU TIME =        122.0 (      2.0 MIN)
 TOTAL WALL CLOCK TIME=        123.5 SECONDS, CPU UTILIZATION IS    98.84%
 ...... END OF 2-ELECTRON GRADIENT ......
 STEP CPU TIME =     0.56 TOTAL CPU TIME =        122.6 (      2.0 MIN)
 TOTAL WALL CLOCK TIME=        124.0 SECONDS, CPU UTILIZATION IS    98.84%

 UNITS ARE HARTREE/BOHR    E'X               E'Y               E'Z 
    1 C                0.000908489       0.000908324       0.001354550
    2 H                0.000111435       0.000094016       0.000110098
    3 H                0.000093971       0.000111484       0.000110087
    4 H               -0.000111807      -0.000111773      -0.000131930
    5 H               -0.001002088      -0.001002051      -0.001442805
  $VIB   
          IVIB=   2 IATOM=   5 ICOORD=   3 E=      -40.5022700107
  9.084892544E-04 9.083238567E-04 1.354549883E-03 1.114351189E-04 9.401614715E-05
  1.100984982E-04 9.397054659E-05 1.114840448E-04 1.100865143E-04-1.118070710E-04
 -1.117732981E-04-1.319296315E-04-1.002087849E-03-1.002050751E-03-1.442805264E-03
  1.747279206E-03 1.754161084E-03 7.309071861E-05
 ...... END OF NUMERICAL HESSIAN CALCULATION ......
 STEP CPU TIME =     0.01 TOTAL CPU TIME =        122.6 (      2.0 MIN)
 TOTAL WALL CLOCK TIME=        124.0 SECONDS, CPU UTILIZATION IS    98.82%

          ---------------
          ENERGY GRADIENT
          ---------------

 UNITS ARE HARTREE/BOHR    E'X               E'Y               E'Z 
    1 C                0.000000000       0.000000000       0.000000000
    2 H               -0.000002032       0.000002032       0.000002032
    3 H                0.000002032      -0.000002032       0.000002032
    4 H                0.000002032       0.000002032      -0.000002032
    5 H               -0.000002032      -0.000002032      -0.000002032

          -------------------------------
          CARTESIAN FORCE CONSTANT MATRIX
          -------------------------------

                                   1                          2
                               C                          H         
                          X        Y        Z        X        Y        Z
  1   C            X 0.540594 0.000000 0.000000-0.135149 0.089863 0.089863
                   Y 0.000000 0.540594 0.000000 0.089863-0.135149-0.089863
                   Z 0.000000 0.000000 0.540594 0.089863-0.089863-0.135149
  2   H            X-0.135149 0.089863 0.089863 0.143755-0.099016-0.099016
                   Y 0.089863-0.135149-0.089863-0.099016 0.143755 0.099016
                   Z 0.089863-0.089863-0.135149-0.099016 0.099016 0.143754
  3   H            X-0.135149 0.089863-0.089863-0.010785 0.009154-0.011315
                   Y 0.089863-0.135149 0.089863 0.009154-0.010785 0.011315
                   Z-0.089863 0.089863-0.135149 0.011315-0.011315 0.012964
  4   H            X-0.135149-0.089863 0.089863-0.010785-0.011315 0.009154
                   Y-0.089863-0.135149 0.089863 0.011315 0.012964-0.011315
                   Z 0.089863 0.089863-0.135149 0.009154 0.011315-0.010785
  5   H            X-0.135149-0.089863-0.089863 0.012964 0.011315 0.011315
                   Y-0.089863-0.135149-0.089863-0.011315-0.010785-0.009154
                   Z-0.089863-0.089863-0.135149-0.011315-0.009154-0.010784

                                   3                          4
                               H                          H         
                          X        Y        Z        X        Y        Z
  3   H            X 0.143755-0.099016 0.099016 0.012964-0.011315 0.011315
                   Y-0.099016 0.143755-0.099016 0.011315-0.010785 0.009154
                   Z 0.099016-0.099016 0.143754-0.011315 0.009154-0.010784
  4   H            X 0.012964 0.011315-0.011315 0.143755 0.099016-0.099016
                   Y-0.011315-0.010785 0.009154 0.099016 0.143755-0.099016
                   Z 0.011315 0.009154-0.010784-0.099016-0.099016 0.143754
  5   H            X-0.010785-0.011315-0.009154-0.010785-0.009154-0.011315
                   Y 0.011315 0.012964 0.011315-0.009154-0.010785-0.011315
                   Z-0.009154-0.011315-0.010785 0.011315 0.011315 0.012964

                                   5
                               H         
                          X        Y        Z
  5   H            X 0.143755 0.099016 0.099016
                   Y 0.099016 0.143755 0.099016
                   Z 0.099016 0.099016 0.143754

          ------------------------          ----------------
          DIPOLE DERIVATIVE TENSOR          (DEBYE/ANGSTROM)
          ------------------------          ----------------

        ATOM                 MU-X           MU-Y           MU-Z
     C          D/DX     0.051788907   -0.000004559    0.000015229
                D/DY    -0.000004557    0.051799550    0.000000296
                D/DZ    -0.000019803   -0.000000466    0.051804067
     H          D/DX    -0.012947641    0.331992580    0.331991764
                D/DY     0.331992414   -0.012948983   -0.331989098
                D/DZ     0.331989691   -0.331985503   -0.012949202
     H          D/DX    -0.012947641    0.331992580   -0.331991764
                D/DY     0.331992414   -0.012948983    0.331989098
                D/DZ    -0.331989691    0.331985503   -0.012949202
     H          D/DX    -0.012947641   -0.331992580    0.331991764
                D/DY    -0.331992414   -0.012948983    0.331989098
                D/DZ     0.331989691    0.331985503   -0.012949202
     H          D/DX    -0.012947641   -0.331992580   -0.331991764
                D/DY    -0.331992414   -0.012948983   -0.331989098
                D/DZ    -0.331989691   -0.331985503   -0.012949202

          --------------------------------------------------------
          NORMAL COORDINATE ANALYSIS IN THE HARMONIC APPROXIMATION
          --------------------------------------------------------

          ATOMIC WEIGHTS (AMU)

    1     C                12.00000
    2     H                 1.00782
    3     H                 1.00782
    4     H                 1.00782
    5     H                 1.00782

 MODES    1 TO    6 ARE TAKEN AS ROTATIONS AND TRANSLATIONS.

 ANALYZING SYMMETRY OF NORMAL MODES...
 WATCH OUT!! THE COUNTING OF DEGENERATE MODES COUNTS INDIVIDUAL MODES,
 E.G. 2*E MEANS ONE (1) SET OF DEGENERATE E MODES

 --- SYMMETRY FOR NORMAL MODES ---
 INCLUDING TRANSLATION AND ROTATION
    1*A1     0*A2     2*E      3*T1     9*T2  
 EXCLUDING TRANSLATION AND ROTATION (SAYVETZ < 0.01)
    1*A1     0*A2     2*E      0*T1     6*T2  

     FREQUENCIES IN CM**-1, IR INTENSITIES IN DEBYE**2/AMU-ANGSTROM**2,
     REDUCED MASSES IN AMU.

                            1           2           3           4           5
       FREQUENCY:        16.21       16.20       16.19        0.48        0.01  
        SYMMETRY:         T1          T1          T1          T2          T2  
    REDUCED MASS:      1.00783     1.00783     1.00783     3.20628     3.20629
    IR INTENSITY:      0.00000     0.00000     0.00000     0.00000     0.00000

  1   C            X  0.00015684  0.00031449  0.00000017  0.17656344 -0.00028015
                   Y -0.00000445  0.00000021  0.00031511  0.17130663 -0.06066553
                   Z -0.00000002 -0.00000483 -0.00015702  0.04309919  0.24227633
  2   H            X -0.35221281 -0.35167115  0.00000061  0.17702546 -0.00028676
                   Y -0.35218008  0.00018960 -0.35186524  0.17172315 -0.06098528
                   Z -0.00019419 -0.35218009  0.35202383  0.04314459  0.24258941
  3   H            X  0.35214296 -0.35205519  0.00000581  0.17672214 -0.00028730
                   Y  0.35217637 -0.00019444 -0.35186001  0.17141911 -0.06099003
                   Z  0.00019450  0.35217044 -0.35233782  0.04305304  0.24195886
  4   H            X -0.35182934  0.35268408 -0.00000502  0.17640169 -0.00027290
                   Y  0.35217118 -0.00018875  0.35249536  0.17088717 -0.06034465
                   Z  0.00018929  0.35217607  0.35201813  0.04251792  0.24260426
  5   H            X  0.35252644  0.35230004  0.00000018  0.17609815 -0.00027346
                   Y -0.35218527  0.00019529  0.35249013  0.17119123 -0.06033999
                   Z -0.00018898 -0.35218572 -0.35233212  0.04367982  0.24194392

 TRANS. SAYVETZ    X  0.00251421  0.00504149  0.00000365  2.83053516 -0.00449095
                   Y -0.00007134  0.00000426  0.00505141  2.74626204 -0.97254517
                   Z  0.00000044 -0.00007736 -0.00251712  0.69093463  3.88399565
               TOTAL  0.00251522  0.00504208  0.00564381  4.00390749  4.00390891

   ROT. SAYVETZ    X  0.00002489 -0.00002710 -3.37254792  0.00255471 -0.00309022
                   Y  0.00183614  3.37254809 -0.00002714 -0.00299403  0.00006881
                   Z -3.37255010  0.00183881 -0.00002498  0.00145437  0.00001259
               TOTAL  3.37255060  3.37254859  3.37254792  0.00419595  0.00309101

                            6           7           8           9          10
       FREQUENCY:         0.48     1342.08     1342.08     1342.08     1559.42  
        SYMMETRY:         T2          T2          T2          T2          E   
    REDUCED MASS:      3.20628     1.17984     1.17984     1.17984     1.00783
    IR INTENSITY:      0.00000     0.29480     0.29480     0.29480     0.00000

  1   C            X  0.17664490  0.04698023 -0.08914461 -0.05576481 -0.00000000
                   Y -0.17132394 -0.01826867  0.05322886 -0.10048180 -0.00000003
                   Z -0.04269512 -0.10355068 -0.04983525 -0.00757290 -0.00000001
  2   H            X  0.17711939  0.08583680  0.25907432  0.36618254 -0.03515299
                   Y -0.17142966 -0.22449572 -0.08562328  0.38839068  0.33328321
                   Z -0.04211509  0.18736287  0.41211123 -0.06030077 -0.36843660
  3   H            X  0.17679769 -0.29784432  0.07442259  0.33812291  0.03515304
                   Y -0.17175016  0.15918471  0.09902823  0.41645005 -0.33328316
                   Z -0.04327432  0.42912631 -0.11541730  0.10538605 -0.36843656
  4   H            X  0.17648836  0.01814665  0.45630070 -0.00612747  0.03515301
                   Y -0.17121501  0.33325849 -0.23127519  0.20982761  0.33328321
                   Z -0.04274268  0.25505277  0.21488546  0.31200810  0.36843662
  5   H            X  0.17616698 -0.36553435  0.27164882 -0.03418666 -0.03515304
                   Y -0.17089431 -0.05042182 -0.41592675  0.18176820 -0.33328318
                   Z -0.04264661  0.36143645  0.08180847 -0.26692308  0.36843656

 TRANS. SAYVETZ    X  2.83184017 -0.00000976  0.00001695  0.00000939 -0.00000004
                   Y -2.74653876  0.00000382 -0.00001019  0.00001700 -0.00000023
                   Z -0.68445654  0.00001834  0.00000812  0.00000105 -0.00000006
               TOTAL  4.00390743  0.00002113  0.00002138  0.00001945  0.00000024

   ROT. SAYVETZ    X -0.00255406 -0.00000068  0.00000163  0.00000066 -0.00000000
                   Y -0.00301297 -0.00000049  0.00000129 -0.00000189 -0.00000000
                   Z  0.00153732  0.00000165  0.00000066  0.00000005  0.00000000
               TOTAL  0.00423846  0.00000185  0.00000218  0.00000200  0.00000000

                           11          12          13          14          15
       FREQUENCY:      1559.42     3026.59     3129.14     3129.15     3129.15  
        SYMMETRY:         E           A1          T2          T2          T2  
    REDUCED MASS:      1.00783     1.00783     1.10090     1.10090     1.10090
    IR INTENSITY:      0.00000     0.00000     0.58099     0.58099     0.58098

  1   C            X -0.00000002  0.00000001  0.08767030 -0.00185861 -0.00138109
                   Y -0.00000006 -0.00000002  0.00022431 -0.04524555  0.07512800
                   Z -0.00000000 -0.00000001  0.00230465  0.07510535  0.04522504
  2   H            X -0.40513813  0.28755167 -0.25288912  0.10092935  0.38861879
                   Y -0.23301242 -0.28755201  0.27206073 -0.11120379 -0.37253272
                   Z -0.17212548 -0.28755168  0.27251445 -0.08495273 -0.37905529
  3   H            X  0.40513826 -0.28755237 -0.26761479 -0.37896818  0.09964579
                   Y  0.23301254  0.28755270  0.28678638  0.36869350 -0.08355988
                   Z -0.17212540 -0.28755241 -0.28623472 -0.36218056  0.10981145
  4   H            X  0.40513816 -0.28755226 -0.25432207  0.39003310 -0.09142412
                   Y -0.23301245 -0.28755263 -0.27339584  0.38056921 -0.07473569
                   Z  0.17212551  0.28755227  0.27394737 -0.37405625  0.10098724
  5   H            X -0.40513824  0.28755236 -0.26904835 -0.08986436 -0.38039616
                   Y  0.23301250  0.28755265 -0.28812211 -0.09932799 -0.36370759
                   Z  0.17212538  0.28755233 -0.28766827 -0.07307695 -0.37023016

 TRANS. SAYVETZ    X -0.00000015 -0.00000043  0.00000098 -0.00000018 -0.00000015
                   Y -0.00000051  0.00000052 -0.00000003 -0.00000013  0.00000042
                   Z -0.00000002  0.00000037 -0.00000010  0.00000004  0.00000010
               TOTAL  0.00000053  0.00000077  0.00000099  0.00000023  0.00000046

   ROT. SAYVETZ    X -0.00000000  0.00000000  0.00000030 -0.00000004  0.00000002
                   Y -0.00000000  0.00000000 -0.00000004  0.00000052 -0.00000086
                   Z -0.00000000 -0.00000000  0.00000004  0.00000058  0.00000035
               TOTAL  0.00000000  0.00000000  0.00000031  0.00000078  0.00000093

 REFERENCE ON SAYVETZ CONDITIONS - A. SAYVETZ, J.CHEM.PHYS., 7, 383-389(1939).

 NOTE - THE MODES J,K ARE ORTHONORMALIZED ACCORDING TO
 SUM ON I   M(I) * (X(I,J)*X(I,K) + Y(I,J)*Y(I,K) + Z(I,J)*Z(I,K)) = DELTA(J,K)

  MODE FREQ(CM**-1)  SYMMETRY  RED. MASS  IR INTENS.
     1      16.212    T1       1.007825    0.000000
     2      16.201    T1       1.007826    0.000000
     3      16.188    T1       1.007826    0.000000
     4       0.479    T2       3.206280    0.000000
     5       0.013    T2       3.206286    0.000000
     6       0.480    T2       3.206284    0.000000
     7    1342.081    T2       1.179841    0.294797
     8    1342.081    T2       1.179841    0.294799
     9    1342.082    T2       1.179842    0.294797
    10    1559.417    E        1.007825    0.000000
    11    1559.419    E        1.007825    0.000000
    12    3026.588    A1       1.007825    0.000000
    13    3129.144    T2       1.100901    0.580985
    14    3129.146    T2       1.100901    0.580987
    15    3129.146    T2       1.100901    0.580984

     -------------------------------
     THERMOCHEMISTRY AT T=  298.15 K
     -------------------------------

 USING IDEAL GAS, RIGID ROTOR, HARMONIC NORMAL MODE APPROXIMATIONS.
 P=  1.01325E+05 PASCAL.
 ALL FREQUENCIES ARE SCALED BY   1.00000
 THE MOMENTS OF INERTIA ARE (IN AMU*BOHR**2)
             11.37410            11.37410            11.37410
 THE ROTATIONAL SYMMETRY NUMBER IS 12.0
 THE ROTATIONAL CONSTANTS ARE (IN GHZ)
    158.52577   158.52577   158.52577
      7 -     15 VIBRATIONAL MODES ARE USED IN THERMOCHEMISTRY.
 THE HARMONIC ZERO POINT ENERGY IS (SCALED BY   1.000)
        0.044559 HARTREE/MOLECULE     9779.551173 CM**-1/MOLECULE 
       27.961168 KCAL/MOL              116.989527 KJ/MOL

               Q               LN Q
 ELEC.     1.00000E+00       0.000000
 TRANS.    2.52294E+06      14.740935
 ROT.      3.61856E+01       3.588661
 VIB.      1.00572E+00       0.005701
 TOT.      9.18161E+07      18.335298

              E         H         G         CV        CP        S
           KJ/MOL    KJ/MOL    KJ/MOL   J/MOL-K   J/MOL-K   J/MOL-K
 ELEC.      0.000     0.000     0.000     0.000     0.000     0.000
 TRANS.     3.718     6.197   -36.542    12.472    20.786   143.348
 ROT.       3.718     3.718    -8.896    12.472    12.472    42.309
 VIB.     117.084   117.084   116.975     2.126     2.126     0.364
 TOTAL    124.521   127.000    71.537    27.069    35.384   186.022
 VIB. THERMAL CORRECTION E(T)-E(0) = H(T)-H(0) =        94.427 J/MOL

              E         H         G         CV        CP        S
         KCAL/MOL  KCAL/MOL  KCAL/MOL CAL/MOL-K CAL/MOL-K CAL/MOL-K
 ELEC.      0.000     0.000     0.000     0.000     0.000     0.000
 TRANS.     0.889     1.481    -8.734     2.981     4.968    34.261
 ROT.       0.889     0.889    -2.126     2.981     2.981    10.112
 VIB.      27.984    27.984    27.958     0.508     0.508     0.087
 TOTAL     29.761    30.354    17.098     6.470     8.457    44.460
 VIB. THERMAL CORRECTION E(T)-E(0) = H(T)-H(0) =        22.569 CAL/MOL
 ......END OF NORMAL COORDINATE ANALYSIS......
 STEP CPU TIME =     0.01 TOTAL CPU TIME =        122.6 (      2.0 MIN)
 TOTAL WALL CLOCK TIME=        124.0 SECONDS, CPU UTILIZATION IS    98.83%
               2581830  WORDS OF DYNAMIC MEMORY USED
 EXECUTION OF GAMESS TERMINATED NORMALLY Thu Aug 17 06:06:52 2023
 DDI: 263640 bytes (0.3 MB / 0 MWords) used by master data server.

 ----------------------------------------
 CPU timing information for all processes
 ========================================
 0: 121.935 + 0.673 = 122.608
 ----------------------------------------
 ddikick.x: exited gracefully.
----- accounting info -----
Files used on the master node chemcompute-node-0.novalocal were:
-rw-r--r--. 1 chemcomp chemcomp      661 Aug 17 06:04 /scratch/264528/620620.F05
-rw-rw-r--. 1 chemcomp chemcomp 65536000 Aug 17 06:06 /scratch/264528/620620.F10
-rw-rw-r--. 1 chemcomp chemcomp  2727712 Aug 17 06:06 /scratch/264528/620620.F22
Thu Aug 17 06:06:56 UTC 2023
0.084u 0.029s 2:07.38 0.0%	0+0k 8+208io 0pf+0w
Finishing Up...
Looking for IR data...
Looking for Raman data...
vibramans not found
Looking for thermodynamics data...
Looking for UV-Vis data...
chemcompute.org
{'UTCtimestamp': '2023-08-17T06:06:57.193473', 'cluster': 'jetstream2', 'clusterJobNumber': '264528', 'status': 'COMPLETE', 'nodeList': 'chemcompute-node-0'}
264528
