chemcompute.org
{'UTCtimestamp': '2023-08-17T06:02:46.062238', 'cluster': 'jetstream2', 'clusterJobNumber': '264525', 'status': 'RUNNING', 'nodeList': 'chemcompute-node-0'}
----- GAMESS execution script 'rungms' -----
This job is running on host chemcompute-node-0.novalocal
under operating system Linux at Thu Aug 17 06:02:49 UTC 2023
SLURM has assigned the following compute nodes to this run:
Available scratch disk space (Kbyte units) at beginning of the job is
Filesystem     1K-blocks     Used Available Use% Mounted on
/dev/sda4       61775852 11317616  50458236  19% /
GAMESS temporary binary files will be written to /scratch/264525
GAMESS supplementary output files will be written to /data/slurm/62/620616
Copying input file 620616.inp to your run's scratch directory...
The generated host list is
chemcompute-node-0.novalocal

 Distributed Data Interface kickoff program.
 Initiating 1 compute processes on 1 nodes to run the following command:
 /data/gamess-2019R1-avx2-ddi/gamess.00.x 620616 

          ******************************************************
          *         GAMESS VERSION = 30 JUN 2019 (R1)          *
          *             FROM IOWA STATE UNIVERSITY             *
          * M.W.SCHMIDT, K.K.BALDRIDGE, J.A.BOATZ, S.T.ELBERT, *
          *   M.S.GORDON, J.H.JENSEN, S.KOSEKI, N.MATSUNAGA,   *
          *          K.A.NGUYEN, S.J.SU, T.L.WINDUS,           *
          *       TOGETHER WITH M.DUPUIS, J.A.MONTGOMERY       *
          *         J.COMPUT.CHEM.  14, 1347-1363(1993)        *
          **************** 64 BIT INTEL VERSION ****************

  SINCE 1993, STUDENTS AND POSTDOCS WORKING AT IOWA STATE UNIVERSITY
  AND ALSO IN THEIR VARIOUS JOBS AFTER LEAVING ISU HAVE MADE IMPORTANT
  CONTRIBUTIONS TO THE CODE:
     IVANA ADAMOVIC, CHRISTINE AIKENS, YURI ALEXEEV, POOJA ARORA,
     ANDREY ASADCHEV, ROB BELL, PRADIPTA BANDYOPADHYAY, JONATHAN BENTZ,
     COLLEEN BERTONI, BRETT BODE, KURT BRORSEN, CALEB CARLIN, GALINA CHABAN,
     WEI CHEN, CHEOL HO CHOI, PAUL DAY, ALBERT DEFUSCO, NUWAN DESILVA,
     TIM DUDLEY, DMITRI FEDOROV, ALEX FINDLATER, GRAHAM FLETCHER, 
     MARK FREITAG, KURT GLAESEMANN, ANASTASIA GUNINA,
     DAN KEMP, GRANT MERRILL, NORIYUKI MINEZAWA, JONATHAN MULLIN,
     TAKESHI NAGATA, SEAN NEDD, HEATHER NETZLOFF, BOSILJKA NJEGIC, RYAN OLSON,
     MIKE PAK, BUU PHAM,
     SPENCER PRUITT, LUKE ROSKOP, JIM SHOEMAKER, LYUDMILA SLIPCHENKO,
     TONY SMITH, SAROM SOK LEANG, JIE SONG, TETSUYA TAKETSUGU, SIMON WEBB,
     PENG XU, SOOHAENG YOO, FEDERICO ZAHARIEV

  ADDITIONAL CODE HAS BEEN PROVIDED BY COLLABORATORS IN OTHER GROUPS:
     IOWA STATE UNIVERSITY:
          JOE IVANIC, AARON WEST, LAIMUTIS BYTAUTAS, KLAUS RUEDENBERG
     UNIVERSITY OF TOKYO: KIMIHIKO HIRAO, TAKAHITO NAKAJIMA,
          TAKAO TSUNEDA, MUNEAKI KAMIYA, SUSUMU YANAGISAWA,
          KIYOSHI YAGI, MAHITO CHIBA, SEIKEN TOKURA, NAOAKI KAWAKAMI
     UNIVERSITY OF AARHUS: FRANK JENSEN
     UNIVERSITY OF IOWA: VISVALDAS KAIRYS, HUI LI
     NATIONAL INST. OF STANDARDS AND TECHNOLOGY: WALT STEVENS, DAVID GARMER
     UNIVERSITY OF PISA: BENEDETTA MENNUCCI, JACOPO TOMASI
     UNIVERSITY OF MEMPHIS: HENRY KURTZ, PRAKASHAN KORAMBATH
     UNIVERSITY OF ALBERTA: TOBY ZENG, MARIUSZ KLOBUKOWSKI
     UNIVERSITY OF NEW ENGLAND: MARK SPACKMAN
     MIE UNIVERSITY: HIROAKI UMEDA
     NAT. INST. OF ADVANCED INDUSTRIAL SCIENCE AND TECHNOLOGY: KAZUO KITAURA
     MICHIGAN STATE UNIVERSITY:
          KAROL KOWALSKI, MARTA WLOCH, JEFFREY GOUR, JESSE LUTZ,
          WEI LI, JUN SHEN, J. EMILIANO DEUSTUA, PIOTR PIECUCH
     UNIVERSITY OF MINNESOTA:
          YINAN SHU
     UNIVERSITY OF SILESIA: MONIKA MUSIAL, STANISLAW KUCHARSKI
     FACULTES UNIVERSITAIRES NOTRE-DAME DE LA PAIX:
          OLIVIER QUINET, BENOIT CHAMPAGNE
     UNIVERSITY OF CALIFORNIA - SANTA BARBARA: BERNARD KIRTMAN
     INSTITUTE FOR MOLECULAR SCIENCE:
          KAZUYA ISHIMURA, MICHIO KATOUDA, AND SHIGERU NAGASE
     UNIVERSITY OF NOTRE DAME: ANNA POMOGAEVA, DAN CHIPMAN
     KYUSHU UNIVERSITY:
          HARUYUKI NAKANO,
          FENG LONG GU, JACEK KORCHOWIEC, MARCIN MAKOWSKI, AND YURIKO AOKI,
          HIROTOSHI MORI AND EISAKU MIYOSHI
     PENNSYLVANIA STATE UNIVERSITY:
          TZVETELIN IORDANOV, CHET SWALINA, JONATHAN SKONE,
          SHARON HAMMES-SCHIFFER
     WASEDA UNIVERSITY:
          MASATO KOBAYASHI, TOMOKO AKAMA, TSUGUKI TOUMA,
          TAKESHI YOSHIKAWA, YASUHIRO IKABATA, JUNJI SEINO,
          YUYA NAKAJIMA, HIROMI NAKAI
     NANJING UNIVERSITY: SHUHUA LI
     UNIVERSITY OF NEBRASKA:
          PEIFENG SU, DEJUN SI, NANDUN THELLAMUREGE, YALI WANG, HUI LI
     UNIVERSITY OF ZURICH: ROBERTO PEVERATI, KIM BALDRIDGE
     N. COPERNICUS UNIVERSITY AND JACKSON STATE UNIVERSITY:
          MARIA BARYSZ
     UNIVERSITY OF COPENHAGEN: Jimmy Kromann, CASPER STEINMANN
     TOKYO INSTITUTE OF TECHNOLOGY: HIROYA NAKATA
     NAGOYA UNIVERSITY: YOSHIO NISHIMOTO, STEPHAN IRLE
     MOSCOW STATE UNIVERSITY: VLADIMIR MIRONOV
     A.N.NESMEYANOV INSTITUTE OF ORGANOELEMENT COMPOUNDS OF RUSSIAN ACADEMY OF SCIENCES:
          IGOR S. GERASIMOV

 EXECUTION OF GAMESS BEGUN Thu Aug 17 06:02:49 2023

            ECHO OF THE FIRST FEW INPUT CARDS -
 INPUT CARD>!                                                                               
 INPUT CARD>!   GAMESS Calculation input file                                               
 INPUT CARD>!                                                                               
 INPUT CARD>!                                                                               
 INPUT CARD> $CONTRL SCFTYP=RHF MAXIT=200 RUNTYP=OPTIMIZE                                   
 INPUT CARD>         COORD=UNIQUE MULT=1 ISPHER=1                                           
 INPUT CARD>         ICHARG=0                                                               
 INPUT CARD>         DFTTYP=B3LYP                                                           
 INPUT CARD>         MOLPLT=.FALSE. PLTORB=.FALSE.  $END                                    
 INPUT CARD> $SYSTEM TIMLIM=2879 MWORDS=250  $END                                           
 INPUT CARD>                                                                                
 INPUT CARD> $FORCE METHOD=SEMINUM NVIB=2 $END                                              
 INPUT CARD> $STATPT OPTTOL=0.0005 NSTEP=999 $END                                           
 INPUT CARD> $STATPT IHREP=0 HSSEND=.TRUE.  $END                                            
 INPUT CARD>                                                                                
 INPUT CARD> $DFT    METHOD=GRID  NLEB=590  $END                                            
 INPUT CARD>                                                                                
 INPUT CARD> $BASIS  GBASIS=CCD $END                                                        
 INPUT CARD>                                                                                
 INPUT CARD> $SCF    DIRSCF=.T. $END                                                        
 INPUT CARD> $GUESS  GUESS=HUCKEL  $END                                                     
 INPUT CARD>                                                                                
 INPUT CARD> $DATA                                                                          
 INPUT CARD>                                                                                
 INPUT CARD>  Td                                                                            
 INPUT CARD>                                                                                
 INPUT CARD>C     6.0     0.00     0.00     0.00                                            
 INPUT CARD>H     1.0     0.63     0.63     0.63                                            
 INPUT CARD> $END                                                                           
 INPUT CARD>                                                                                
 INPUT CARD>                                                                                
 INPUT CARD>! Customizations after this line are persisted when using Do More Calculations  
  250000000 WORDS OF MEMORY AVAILABLE

     BASIS OPTIONS
     -------------
     GBASIS=CCD          IGAUSS=       0      POLAR=NONE    
     NDFUNC=       0     NFFUNC=       0     DIFFSP=       F
     NPFUNC=       0      DIFFS=       F     BASNAM=        


     RUN TITLE
     ---------
                                                                                 

 THE POINT GROUP OF THE MOLECULE IS TD      
 THE ORDER OF THE PRINCIPAL AXIS IS     0

 ATOM      ATOMIC                      COORDINATES (BOHR)
           CHARGE         X                   Y                   Z
 C           6.0     0.0000000000        0.0000000000        0.0000000000
 H           1.0     1.1905273723       -1.1905273723       -1.1905273723
 H           1.0    -1.1905273723        1.1905273723       -1.1905273723
 H           1.0    -1.1905273723       -1.1905273723        1.1905273723
 H           1.0     1.1905273723        1.1905273723        1.1905273723

          INTERNUCLEAR DISTANCES (ANGS.)
          ------------------------------

                1 C          2 H          3 H          4 H          5 H     

   1 C       0.0000000    1.0911920 *  1.0911920 *  1.0911920 *  1.0911920 *
   2 H       1.0911920 *  0.0000000    1.7819091 *  1.7819091 *  1.7819091 *
   3 H       1.0911920 *  1.7819091 *  0.0000000    1.7819091 *  1.7819091 *
   4 H       1.0911920 *  1.7819091 *  1.7819091 *  0.0000000    1.7819091 *
   5 H       1.0911920 *  1.7819091 *  1.7819091 *  1.7819091 *  0.0000000  

  * ... LESS THAN  3.000


     ATOMIC BASIS SET
     ----------------
 THE CONTRACTED PRIMITIVE FUNCTIONS HAVE BEEN UNNORMALIZED
 THE CONTRACTED BASIS FUNCTIONS ARE NOW NORMALIZED TO UNITY

  SHELL TYPE  PRIMITIVE        EXPONENT          CONTRACTION COEFFICIENT(S)

 C         

      1   S       1          6665.0000000    0.000691583963
      1   S       2          1000.0000000    0.005325796153
      1   S       3           228.0000000    0.027060721042
      1   S       4            64.7100000    0.101656846141
      1   S       5            21.0600000    0.274574823617
      1   S       6             7.4950000    0.448294318924
      1   S       7             2.7970000    0.284902610715
      1   S       8             0.5215000    0.015194859206

      2   S       9          6665.0000000   -0.000293269653
      2   S      10          1000.0000000   -0.002318035474
      2   S      11           228.0000000   -0.011499786039
      2   S      12            64.7100000   -0.046826727010
      2   S      13            21.0600000   -0.128466168750
      2   S      14             7.4950000   -0.301266272463
      2   S      15             2.7970000   -0.255630702330
      2   S      16             0.5215000    1.093793361012

      3   S      17             0.1596000    1.000000000000

      4   P      18             9.4390000    0.056979251590
      4   P      19             2.0020000    0.313207211501
      4   P      20             0.5456000    0.760376741738

      5   P      21             0.1517000    1.000000000000

      6   D      22             0.5500000    1.000000000000

 H         

     16   S      23            13.0100000    0.033498726390
     16   S      24             1.9620000    0.234800801174
     16   S      25             0.4446000    0.813682957883

     17   S      26             0.1220000    1.000000000000

     18   P      27             0.7270000    1.000000000000

 TOTAL NUMBER OF BASIS SET SHELLS             =   18
 NUMBER OF CARTESIAN GAUSSIAN BASIS FUNCTIONS =   35
 NOTE: THIS RUN WILL RESTRICT THE MO VARIATION SPACE TO SPHERICAL HARMONICS.
 THE NUMBER OF ORBITALS KEPT IN THE VARIATIONAL SPACE WILL BE PRINTED LATER.
 NUMBER OF ELECTRONS                          =   10
 CHARGE OF MOLECULE                           =    0
 SPIN MULTIPLICITY                            =    1
 NUMBER OF OCCUPIED ORBITALS (ALPHA)          =    5
 NUMBER OF OCCUPIED ORBITALS (BETA )          =    5
 TOTAL NUMBER OF ATOMS                        =    5
 THE NUCLEAR REPULSION ENERGY IS       13.4207135227

 SELECTED MURRAY-HANDY-LAMING RADIAL GRID

 LEGACY BECKE'S FUZZY CELL METHOD

 SELECTED ORIGINAL BECKE'S PARTITION FUNCTION

     LEBEDEV GRID-BASED DFT OPTIONS
     ------------------------------
     DFTTYP=B3LYP   
     NRAD  =      96     NLEB  =     590
     NRAD0 =      24     NLEB0 =     110
     SWOFF =    5.00E-03 (PURE SCF -> DFT)
     SWITCH=    3.00E-04 (COARSE -> TIGHT GRID)
     THRESH=    0.00E+00 GTHRE=    1.00E+00

 GRIMME'S EMPIRICAL DISPERSION CORRECTION= F

     $CONTRL OPTIONS
     ---------------
 SCFTYP=RHF          RUNTYP=OPTIMIZE     EXETYP=RUN     
 MPLEVL=       0     CITYP =NONE         CCTYP =NONE         VBTYP =NONE    
 DFTTYP=B3LYP        TDDFT =NONE    
 MULT  =       1     ICHARG=       0     NZVAR =       0     COORD =UNIQUE  
 PP    =NONE         RELWFN=NONE         LOCAL =NONE         NUMGRD=       F
 ISPHER=       1     NOSYM =       0     MAXIT =     200     UNITS =ANGS    
 PLTORB=       F     MOLPLT=       F     AIMPAC=       F     FRIEND=        
 NPRINT=       7     IREST =       0     GEOM  =INPUT   
 NORMF =       0     NORMP =       0     ITOL  =      20     ICUT  =       9
 INTTYP=BEST         GRDTYP=BEST         QMTTOL= 1.0E-06

     $SYSTEM OPTIONS
     ---------------
  REPLICATED MEMORY=   250000000 WORDS (ON EVERY NODE).
 DISTRIBUTED MEMDDI=           0 MILLION WORDS IN AGGREGATE,
 MEMDDI DISTRIBUTED OVER   1 PROCESSORS IS           0 WORDS/PROCESSOR.
 TOTAL MEMORY REQUESTED ON EACH PROCESSOR=   250000000 WORDS.
 TIMLIM=        2879.00 MINUTES, OR       2.0 DAYS.
 PARALL= F  BALTYP=  DLB     KDIAG=    0  COREFL= F
 MXSEQ2=     300 MXSEQ3=     150  mem10=         0

          ----------------
          PROPERTIES INPUT
          ----------------

     MOMENTS            FIELD           POTENTIAL          DENSITY
 IEMOM =       1   IEFLD =       0   IEPOT =       0   IEDEN =       0
 WHERE =COMASS     WHERE =NUCLEI     WHERE =NUCLEI     WHERE =NUCLEI  
 OUTPUT=BOTH       OUTPUT=BOTH       OUTPUT=BOTH       OUTPUT=BOTH    
 IEMINT=       0   IEFINT=       0                     IEDINT=       0
                                                       MORB  =       0
          EXTRAPOLATION IN EFFECT
          DIIS IN EFFECT
 ORBITAL PRINTING OPTION: NPREO=     1    35     2     1

     -------------------------------
     INTEGRAL TRANSFORMATION OPTIONS
     -------------------------------
     NWORD  =            0
     CUTOFF = 1.0E-09     MPTRAN =       0
     DIRTRF =       T     AOINTS =DUP     

          ----------------------
          INTEGRAL INPUT OPTIONS
          ----------------------
 NOPK  =       1 NORDER=       0 SCHWRZ=       T

     --------------------------------
     THE POINT GROUP IS TD , ORDER=24
     --------------------------------

 -- VARIATIONAL SPACE WILL BE RESTRICTED TO PURE SPHERICAL HARMONICS ONLY --
 AFTER EXCLUDING CONTAMINANT COMBINATIONS FROM THE CARTESIAN GAUSSIAN BASIS
 SET, THE NUMBER OF SPHERICAL HARMONICS KEPT IN THE VARIATION SPACE IS   34

     DIMENSIONS OF THE SYMMETRY SUBSPACES ARE
 A1  =    6     A2  =    0     E   =    2     T1  =    1     T2  =    7

 ..... DONE SETTING UP THE RUN .....
 STEP CPU TIME =     0.01 TOTAL CPU TIME =          0.0 (      0.0 MIN)
 TOTAL WALL CLOCK TIME=          0.0 SECONDS, CPU UTILIZATION IS    50.00%


          -----------------------------
          STATIONARY POINT LOCATION RUN
          -----------------------------

 OBTAINING INITIAL HESSIAN, HESS=GUESS   
 CARTESIAN COORDINATE OPTIMIZATION USING BADGER'S RULE FORCE CONSTANT GUESS

          PARAMETERS CONTROLLING GEOMETRY SEARCH ARE
          METHOD =QA                  UPHESS =BFGS    
          NNEG   =         0          NFRZ   =         0
          NSTEP  =       999          IFOLOW =         1
          HESS   =GUESS               RESTAR =         F
          IHREP  =         0          HSSEND =         T
          NPRT   =         0          NPUN   =         0
          OPTTOL = 5.000E-04          RMIN   = 1.500E-03
          RMAX   = 1.000E-01          RLIM   = 7.000E-02
          DXMAX  = 3.000E-01          PURIFY =         F
          MOVIE  =         F          TRUPD  =         T
          TRMAX  = 5.000E-01          TRMIN  = 5.000E-02
          ITBMAT =         5          STPT   =         F
          STSTEP = 1.000E-02          PROJCT=          T

 BEGINNING GEOMETRY SEARCH POINT NSERCH=   0 ...

 COORDINATES OF SYMMETRY UNIQUE ATOMS (ANGS)
   ATOM   CHARGE       X              Y              Z
 ------------------------------------------------------------
 C           6.0   0.0000000000   0.0000000000   0.0000000000
 H           1.0   0.6300000000   0.6300000000   0.6300000000
 COORDINATES OF ALL ATOMS ARE (ANGS)
   ATOM   CHARGE       X              Y              Z
 ------------------------------------------------------------
 C           6.0   0.0000000000   0.0000000000   0.0000000000
 H           1.0   0.6300000000  -0.6300000000  -0.6300000000
 H           1.0  -0.6300000000   0.6300000000  -0.6300000000
 H           1.0  -0.6300000000  -0.6300000000   0.6300000000
 H           1.0   0.6300000000   0.6300000000   0.6300000000

          ********************
          1 ELECTRON INTEGRALS
          ********************
 ...... END OF ONE-ELECTRON INTEGRALS ......
 STEP CPU TIME =     0.01 TOTAL CPU TIME =          0.0 (      0.0 MIN)
 TOTAL WALL CLOCK TIME=          0.0 SECONDS, CPU UTILIZATION IS    66.67%

          -------------
          GUESS OPTIONS
          -------------
          GUESS =HUCKEL            NORB  =       0          NORDER=       0
          MIX   =       F          PRTMO =       F          PUNMO =       F
          TOLZ  = 1.0E-08          TOLE  = 1.0E-05
          SYMDEN=       F          PURIFY=       F

 INITIAL GUESS ORBITALS GENERATED BY HUCKEL   ROUTINE.
 HUCKEL GUESS REQUIRES     12896 WORDS.

 STATISTICS FOR GENERATION OF SYMMETRY ORBITAL -Q- MATRIX
 NUMBER OF CARTESIAN ATOMIC ORBITALS=         35
 NUMBER OF SPHERICAL CONTAMINANTS DROPPED=     1
 NUMBER OF LINEARLY DEPENDENT MOS DROPPED=     0
 TOTAL NUMBER OF MOS IN VARIATION SPACE=      34

 SYMMETRIES FOR INITIAL GUESS ORBITALS FOLLOW.   BOTH SET(S).
     5 ORBITALS ARE OCCUPIED (    1 CORE ORBITALS).
     2=A1       3=T2       4=T2       5=T2       6=T2       7=T2       8=T2  
     9=A1      10=A1      11=A1      12=A1      13=E       14=E       15=E   
 ...... END OF INITIAL ORBITAL SELECTION ......
 STEP CPU TIME =     0.00 TOTAL CPU TIME =          0.0 (      0.0 MIN)
 TOTAL WALL CLOCK TIME=          0.0 SECONDS, CPU UTILIZATION IS    50.00%

                    ----------------------
                    AO INTEGRAL TECHNOLOGY
                    ----------------------
     S,P,L SHELL ROTATED AXIS INTEGRALS, REPROGRAMMED BY
        KAZUYA ISHIMURA (IMS) AND JOSE SIERRA (SYNSTAR).
     S,P,D,L SHELL ROTATED AXIS INTEGRALS PROGRAMMED BY
        KAZUYA ISHIMURA (INSTITUTE FOR MOLECULAR SCIENCE).
     S,P,D,F,G SHELL TO TOTAL QUARTET ANGULAR MOMENTUM SUM 5,
        ERIC PROGRAM BY GRAHAM FLETCHER (ELORET AND NASA ADVANCED
        SUPERCOMPUTING DIVISION, AMES RESEARCH CENTER).
     S,P,D,F,G,L SHELL GENERAL RYS QUADRATURE PROGRAMMED BY
        MICHEL DUPUIS (PACIFIC NORTHWEST NATIONAL LABORATORY).

          --------------------
          2 ELECTRON INTEGRALS
          --------------------

 DIRECT SCF METHOD SKIPS INTEGRAL STORAGE ON DISK.
 DIRECT TRANSFORMATION SKIPS AO INTEGRAL STORAGE ON DISK.
  ...... END OF TWO-ELECTRON INTEGRALS .....
 STEP CPU TIME =     0.00 TOTAL CPU TIME =          0.0 (      0.0 MIN)
 TOTAL WALL CLOCK TIME=          0.0 SECONDS, CPU UTILIZATION IS    40.00%

          --------------------------
             R-B3LYP SCF CALCULATION
          --------------------------

     NUCLEAR ENERGY =        13.4207135227
     MAXIT =  200     NPUNCH=    2
     EXTRAP=T  DAMP=F  SHIFT=F  RSTRCT=F  DIIS=T  DEM=F  SOSCF=F
         DENSITY MATRIX CONVERGENCE THRESHOLD=  2.00E-05
     COARSE -> FINE DFT GRID SWITCH THRESHOLD=  3.00E-04 (SWITCH IN $DFT)
                   HF -> DFT SWITCH THRESHOLD=  5.00E-03 (SWOFF IN $DFT)
     MEMORY REQUIRED FOR RHF ITERS=    416196 WORDS.

 DIRECT SCF CALCULATION, SCHWRZ=T   FDIFF=T,  DIRTHR=  0.00E+00 NITDIR=10
 SCHWARZ INEQUALITY OVERHEAD:       630 INTEGRALS, T=        0.00

 DFT CODE IS SWITCHING FROM THE FINE GRID NRAD= 96,  NLEB=  590
                      TO THE COARSE GRID NRAD0= 24, NLEB0=  110

     EXCHANGE FUNCTIONAL   =B88&HFX   
     CORRELATION FUNCTIONAL=LYP88&VWN5
     DFT THRESHOLD         =.141E-07
     GRID CHANGE THRESHOLD =.300E-03
 FOR AN EULER-MACLAURIN QUADRATURE USING  96 RADIAL POINTS:
 SMALLEST GAUSSIAN PRIMITIVE EXPONENT=        0.1220000000 OF TYPE -S-
 ON ATOM NUMBER   2 HAS RADIAL NORMALIZATION=  1.000000
  LARGEST GAUSSIAN PRIMITIVE EXPONENT=     6665.0000000000 OF TYPE -S-
 ON ATOM NUMBER   1 HAS RADIAL NORMALIZATION=  1.000000
 DFT IS SWITCHED OFF, PERFORMING PURE SCF UNTIL SWOFF THRESHOLD IS REACHED.

                                                                                   NONZERO     BLOCKS
 ITER EX DEM     TOTAL ENERGY        E CHANGE  DENSITY CHANGE    DIIS ERROR      INTEGRALS    SKIPPED
   1  0  0      -40.1041157604   -40.1041157604   0.129481465   0.539370945          26397          0
          * * *   INITIATING DIIS PROCEDURE   * * *
   2  1  0      -40.1933560749    -0.0892403145   0.045512081   0.052656970          26397          0
   3  2  0      -40.1981052431    -0.0047491682   0.015272632   0.023110051          26397          0
   4  3  0      -40.1986605314    -0.0005552882   0.003380714   0.003842117          26397          0
 CONVERGED TO SWOFF, SO DFT CALCULATION IS NOW SWITCHED ON.
          * * *   INITIATING DIIS PROCEDURE   * * *
   5  4  0      -40.4763150475    -0.2776545161   0.043260983   0.090208772          26397          0
   6  5  0      -40.4792018383    -0.0028867908   0.024520682   0.016961550          26397          0
   7  6  0      -40.4794441538    -0.0002423155   0.011298884   0.013971026          26397          0
   8  7  0      -40.4799782911    -0.0005341373   0.000194875   0.000303077          26397          0
 DFT CODE IS SWITCHING BACK TO THE FINE GRID
          * * *   INITIATING DIIS PROCEDURE   * * *
   9  8  0      -40.4801703198    -0.0001920287   0.001547692   0.001189762          26397          0
  10  9  0      -40.4801746031    -0.0000042833   0.000218761   0.000130679          26397          0
  11 10  0      -40.4801746200    -0.0000000169   0.000099516   0.000133067          26397          0
  12 11  0      -40.4801746644    -0.0000000444   0.000004592   0.000004680          26397          0
  13 12  0      -40.4801746645    -0.0000000000   0.000000123   0.000000097          26397          0

          -----------------
          DENSITY CONVERGED
          -----------------
     TIME TO FORM FOCK OPERATORS=       0.8 SECONDS (       0.1 SEC/ITER)
     FOCK TIME ON FIRST ITERATION=       0.0, LAST ITERATION=       0.2
     TIME TO SOLVE SCF EQUATIONS=       0.0 SECONDS (       0.0 SEC/ITER)

 FINAL R-B3LYP ENERGY IS      -40.4801746645 AFTER  13 ITERATIONS
 DFT EXCHANGE + CORRELATION ENERGY =        -5.5519190647
 TOTAL ELECTRON NUMBER             =        10.0000258908

          ------------
          EIGENVECTORS
          ------------

                      1          2          3          4          5
                  -10.1676    -0.6895    -0.3865    -0.3865    -0.3865
                     A1         A1         T2         T2         T2  
    1  C  1  S    1.006834  -0.026176   0.000000   0.000000   0.000000
    2  C  1  S    0.017227   0.378616   0.000000   0.000000   0.000000
    3  C  1  S   -0.014700   0.217468   0.000000   0.000000   0.000000
    4  C  1  X    0.000000   0.000000   0.440372   0.000000   0.000000
    5  C  1  Y    0.000000   0.000000   0.000000   0.440372   0.000000
    6  C  1  Z    0.000000   0.000000   0.000000   0.000000   0.440372
    7  C  1  X    0.000000   0.000000   0.179004   0.000000   0.000000
    8  C  1  Y    0.000000   0.000000   0.000000   0.179004   0.000000
    9  C  1  Z    0.000000   0.000000   0.000000   0.000000   0.179004
   10  C  1 XX    0.000000   0.000000   0.000000   0.000000   0.000000
   11  C  1 YY    0.000000   0.000000   0.000000   0.000000   0.000000
   12  C  1 ZZ    0.000000   0.000000   0.000000   0.000000   0.000000
   13  C  1 XY    0.000000   0.000000   0.000000   0.000000   0.019278
   14  C  1 XZ    0.000000   0.000000   0.000000   0.019278   0.000000
   15  C  1 YZ    0.000000   0.000000   0.019278   0.000000   0.000000
   16  H  2  S   -0.001576   0.184135   0.222615  -0.222615  -0.222615
   17  H  2  S    0.002197   0.032617   0.101294  -0.101294  -0.101294
   18  H  2  X    0.001155  -0.014492   0.005280   0.009715   0.009715
   19  H  2  Y   -0.001155   0.014492   0.009715   0.005280  -0.009715
   20  H  2  Z   -0.001155   0.014492   0.009715  -0.009715   0.005280
   21  H  3  S   -0.001576   0.184135  -0.222615   0.222615  -0.222615
   22  H  3  S    0.002197   0.032617  -0.101294   0.101294  -0.101294
   23  H  3  X   -0.001155   0.014492   0.005280   0.009715  -0.009715
   24  H  3  Y    0.001155  -0.014492   0.009715   0.005280   0.009715
   25  H  3  Z   -0.001155   0.014492  -0.009715   0.009715   0.005280
   26  H  4  S   -0.001576   0.184135  -0.222615  -0.222615   0.222615
   27  H  4  S    0.002197   0.032617  -0.101294  -0.101294   0.101294
   28  H  4  X   -0.001155   0.014492   0.005280  -0.009715   0.009715
   29  H  4  Y   -0.001155   0.014492  -0.009715   0.005280   0.009715
   30  H  4  Z    0.001155  -0.014492   0.009715   0.009715   0.005280
   31  H  5  S   -0.001576   0.184135   0.222615   0.222615   0.222615
   32  H  5  S    0.002197   0.032617   0.101294   0.101294   0.101294
   33  H  5  X    0.001155  -0.014492   0.005280  -0.009715  -0.009715
   34  H  5  Y    0.001155  -0.014492  -0.009715   0.005280  -0.009715
   35  H  5  Z    0.001155  -0.014492  -0.009715  -0.009715   0.005280

                      6          7          8          9         10
                    0.0774     0.1478     0.1478     0.1478     0.4165
                     A1         T2         T2         T2         T2  
    1  C  1  S   -0.065089   0.000000   0.000000   0.000000   0.000000
    2  C  1  S    0.160809   0.000000   0.000000   0.000000   0.000000
    3  C  1  S    2.170144   0.000000   0.000000   0.000000   0.000000
    4  C  1  X    0.000000   0.000000   0.377252   0.000000  -0.299248
    5  C  1  Y    0.000000   0.377252   0.000000   0.000000   0.000000
    6  C  1  Z    0.000000   0.000000   0.000000   0.377252   0.000000
    7  C  1  X    0.000000   0.000000   1.273551   0.000000   1.132115
    8  C  1  Y    0.000000   1.273551   0.000000   0.000000   0.000000
    9  C  1  Z    0.000000   0.000000   0.000000   1.273551   0.000000
   10  C  1 XX    0.000000   0.000000   0.000000   0.000000   0.000000
   11  C  1 YY    0.000000   0.000000   0.000000   0.000000   0.000000
   12  C  1 ZZ    0.000000   0.000000   0.000000   0.000000   0.000000
   13  C  1 XY    0.000000   0.000000   0.000000  -0.001871   0.000000
   14  C  1 XZ    0.000000  -0.001871   0.000000   0.000000   0.000000
   15  C  1 YZ    0.000000   0.000000  -0.001871   0.000000  -0.132255
   16  H  2  S   -0.032864   0.069673  -0.069673   0.069673  -0.478133
   17  H  2  S   -0.800557   1.196169  -1.196169   1.196169   0.093934
   18  H  2  X    0.000232   0.001283   0.006778   0.001283   0.021399
   19  H  2  Y   -0.000232   0.006778   0.001283  -0.001283   0.018917
   20  H  2  Z   -0.000232  -0.001283   0.001283   0.006778   0.018917
   21  H  3  S   -0.032864  -0.069673   0.069673   0.069673   0.478133
   22  H  3  S   -0.800557  -1.196169   1.196169   1.196169  -0.093934
   23  H  3  X   -0.000232   0.001283   0.006778  -0.001283   0.021399
   24  H  3  Y    0.000232   0.006778   0.001283   0.001283   0.018917
   25  H  3  Z   -0.000232   0.001283  -0.001283   0.006778  -0.018917
   26  H  4  S   -0.032864   0.069673   0.069673  -0.069673   0.478133
   27  H  4  S   -0.800557   1.196169   1.196169  -1.196169  -0.093934
   28  H  4  X   -0.000232  -0.001283   0.006778   0.001283   0.021399
   29  H  4  Y   -0.000232   0.006778  -0.001283   0.001283  -0.018917
   30  H  4  Z    0.000232   0.001283   0.001283   0.006778   0.018917
   31  H  5  S   -0.032864  -0.069673  -0.069673  -0.069673  -0.478133
   32  H  5  S   -0.800557  -1.196169  -1.196169  -1.196169   0.093934
   33  H  5  X    0.000232  -0.001283   0.006778  -0.001283   0.021399
   34  H  5  Y    0.000232   0.006778  -0.001283  -0.001283  -0.018917
   35  H  5  Z    0.000232  -0.001283  -0.001283   0.006778  -0.018917

                     11         12         13         14         15
                    0.4165     0.4165     0.6573     0.6573     0.6573
                     T2         T2         T2         T2         T2  
    1  C  1  S    0.000000   0.000000   0.000000   0.000000   0.000000
    2  C  1  S    0.000000   0.000000   0.000000   0.000000   0.000000
    3  C  1  S    0.000000   0.000000   0.000000   0.000000   0.000000
    4  C  1  X    0.000000   0.000000   0.000000  -0.862494   0.000000
    5  C  1  Y   -0.299248   0.000000  -0.862494   0.000000   0.000000
    6  C  1  Z    0.000000  -0.299248   0.000000   0.000000  -0.862494
    7  C  1  X    0.000000   0.000000   0.000000   1.810239   0.000000
    8  C  1  Y    1.132115   0.000000   1.810239   0.000000   0.000000
    9  C  1  Z    0.000000   1.132115   0.000000   0.000000   1.810239
   10  C  1 XX    0.000000   0.000000   0.000000   0.000000   0.000000
   11  C  1 YY    0.000000   0.000000   0.000000   0.000000   0.000000
   12  C  1 ZZ    0.000000   0.000000   0.000000   0.000000   0.000000
   13  C  1 XY    0.000000  -0.132255   0.000000   0.000000   0.286772
   14  C  1 XZ   -0.132255   0.000000   0.286772   0.000000   0.000000
   15  C  1 YZ    0.000000   0.000000   0.000000   0.286772   0.000000
   16  H  2  S    0.478133   0.478133  -0.233002   0.233002  -0.233002
   17  H  2  S   -0.093934  -0.093934   1.141628  -1.141628   1.141628
   18  H  2  X    0.018917   0.018917  -0.102941   0.043832  -0.102941
   19  H  2  Y    0.021399  -0.018917   0.043832  -0.102941   0.102941
   20  H  2  Z   -0.018917   0.021399   0.102941  -0.102941   0.043832
   21  H  3  S   -0.478133   0.478133   0.233002  -0.233002  -0.233002
   22  H  3  S    0.093934  -0.093934  -1.141628   1.141628   1.141628
   23  H  3  X    0.018917  -0.018917  -0.102941   0.043832   0.102941
   24  H  3  Y    0.021399   0.018917   0.043832  -0.102941  -0.102941
   25  H  3  Z    0.018917   0.021399  -0.102941   0.102941   0.043832
   26  H  4  S    0.478133  -0.478133  -0.233002  -0.233002   0.233002
   27  H  4  S   -0.093934   0.093934   1.141628   1.141628  -1.141628
   28  H  4  X   -0.018917   0.018917   0.102941   0.043832  -0.102941
   29  H  4  Y    0.021399   0.018917   0.043832   0.102941  -0.102941
   30  H  4  Z    0.018917   0.021399  -0.102941  -0.102941   0.043832
   31  H  5  S   -0.478133  -0.478133   0.233002   0.233002   0.233002
   32  H  5  S    0.093934   0.093934  -1.141628  -1.141628  -1.141628
   33  H  5  X   -0.018917  -0.018917   0.102941   0.043832   0.102941
   34  H  5  Y    0.021399  -0.018917   0.043832   0.102941   0.102941
   35  H  5  Z   -0.018917   0.021399   0.102941   0.102941   0.043832

                     16         17         18         19         20
                    0.6903     0.9051     0.9051     1.0457     1.4246
                     A1         E          E          A1         T1  
    1  C  1  S   -0.231274   0.000000   0.000000  -0.917799   0.000000
    2  C  1  S   -0.743023   0.000000   0.000000  -1.875873   0.000000
    3  C  1  S    1.034605   0.000000   0.000000   5.072001   0.000000
    4  C  1  X    0.000000   0.000000   0.000000   0.000000   0.000000
    5  C  1  Y    0.000000   0.000000   0.000000   0.000000   0.000000
    6  C  1  Z    0.000000   0.000000   0.000000   0.000000   0.000000
    7  C  1  X    0.000000   0.000000   0.000000   0.000000   0.000000
    8  C  1  Y    0.000000   0.000000   0.000000   0.000000   0.000000
    9  C  1  Z    0.000000   0.000000   0.000000   0.000000   0.000000
   10  C  1 XX    0.000000  -0.268976   0.465880   0.000000   0.000000
   11  C  1 YY    0.000000  -0.268976  -0.465880   0.000000   0.000000
   12  C  1 ZZ    0.000000   0.537952   0.000000   0.000000   0.000000
   13  C  1 XY    0.000000   0.000000   0.000000   0.000000   0.000000
   14  C  1 XZ    0.000000   0.000000   0.000000   0.000000   0.000000
   15  C  1 YZ    0.000000   0.000000   0.000000   0.000000   0.000000
   16  H  2  S    0.592426   0.000000   0.000000  -0.562558   0.000000
   17  H  2  S   -0.493216   0.000000   0.000000  -0.757723   0.000000
   18  H  2  X    0.092944  -0.107920   0.186922   0.038770   0.000000
   19  H  2  Y   -0.092944   0.107920   0.186922  -0.038770   0.369219
   20  H  2  Z   -0.092944  -0.215839   0.000000  -0.038770  -0.369219
   21  H  3  S    0.592426   0.000000   0.000000  -0.562558   0.000000
   22  H  3  S   -0.493216   0.000000   0.000000  -0.757723   0.000000
   23  H  3  X   -0.092944   0.107920  -0.186922  -0.038770   0.000000
   24  H  3  Y    0.092944  -0.107920  -0.186922   0.038770   0.369219
   25  H  3  Z   -0.092944  -0.215839   0.000000  -0.038770   0.369219
   26  H  4  S    0.592426   0.000000   0.000000  -0.562558   0.000000
   27  H  4  S   -0.493216   0.000000   0.000000  -0.757723   0.000000
   28  H  4  X   -0.092944   0.107920  -0.186922  -0.038770   0.000000
   29  H  4  Y   -0.092944   0.107920   0.186922  -0.038770  -0.369219
   30  H  4  Z    0.092944   0.215839   0.000000   0.038770  -0.369219
   31  H  5  S    0.592426   0.000000   0.000000  -0.562558   0.000000
   32  H  5  S   -0.493216   0.000000   0.000000  -0.757723   0.000000
   33  H  5  X    0.092944  -0.107920   0.186922   0.038770   0.000000
   34  H  5  Y    0.092944  -0.107920  -0.186922   0.038770  -0.369219
   35  H  5  Z    0.092944   0.215839   0.000000   0.038770   0.369219

                     21         22         23         24         25
                    1.4246     1.4246     1.6218     1.6218     1.6218
                     T1         T1         T2         T2         T2  
    1  C  1  S    0.000000   0.000000   0.000000   0.000000   0.000000
    2  C  1  S    0.000000   0.000000   0.000000   0.000000   0.000000
    3  C  1  S    0.000000   0.000000   0.000000   0.000000   0.000000
    4  C  1  X    0.000000   0.000000  -0.060878   0.000000   0.000000
    5  C  1  Y    0.000000   0.000000   0.000000  -0.060878   0.000000
    6  C  1  Z    0.000000   0.000000   0.000000   0.000000  -0.060878
    7  C  1  X    0.000000   0.000000   1.024584   0.000000   0.000000
    8  C  1  Y    0.000000   0.000000   0.000000   1.024584   0.000000
    9  C  1  Z    0.000000   0.000000   0.000000   0.000000   1.024584
   10  C  1 XX    0.000000   0.000000   0.000000   0.000000   0.000000
   11  C  1 YY    0.000000   0.000000   0.000000   0.000000   0.000000
   12  C  1 ZZ    0.000000   0.000000   0.000000   0.000000   0.000000
   13  C  1 XY    0.000000   0.000000   0.000000   0.000000   0.709108
   14  C  1 XZ    0.000000   0.000000   0.000000   0.709108   0.000000
   15  C  1 YZ    0.000000   0.000000   0.709108   0.000000   0.000000
   16  H  2  S    0.000000   0.000000  -0.472625   0.472625   0.472625
   17  H  2  S    0.000000   0.000000  -0.079362   0.079362   0.079362
   18  H  2  X    0.369219   0.369219  -0.348428   0.015822   0.015822
   19  H  2  Y    0.000000   0.369219   0.015822  -0.348428  -0.015822
   20  H  2  Z    0.369219   0.000000   0.015822  -0.015822  -0.348428
   21  H  3  S    0.000000   0.000000   0.472625  -0.472625   0.472625
   22  H  3  S    0.000000   0.000000   0.079362  -0.079362   0.079362
   23  H  3  X    0.369219  -0.369219  -0.348428   0.015822  -0.015822
   24  H  3  Y    0.000000  -0.369219   0.015822  -0.348428   0.015822
   25  H  3  Z   -0.369219   0.000000  -0.015822   0.015822  -0.348428
   26  H  4  S    0.000000   0.000000   0.472625   0.472625  -0.472625
   27  H  4  S    0.000000   0.000000   0.079362   0.079362  -0.079362
   28  H  4  X   -0.369219   0.369219  -0.348428  -0.015822   0.015822
   29  H  4  Y    0.000000  -0.369219  -0.015822  -0.348428   0.015822
   30  H  4  Z   -0.369219   0.000000   0.015822   0.015822  -0.348428
   31  H  5  S    0.000000   0.000000  -0.472625  -0.472625  -0.472625
   32  H  5  S    0.000000   0.000000  -0.079362  -0.079362  -0.079362
   33  H  5  X   -0.369219  -0.369219  -0.348428  -0.015822  -0.015822
   34  H  5  Y    0.000000   0.369219  -0.015822  -0.348428  -0.015822
   35  H  5  Z    0.369219   0.000000  -0.015822  -0.015822  -0.348428

                     26         27         28         29         30
                    1.9318     1.9318     1.9318     2.2503     2.2503
                     T2         T2         T2         E          E   
    1  C  1  S    0.000000   0.000000   0.000000   0.000000   0.000000
    2  C  1  S    0.000000   0.000000   0.000000   0.000000   0.000000
    3  C  1  S    0.000000   0.000000   0.000000   0.000000   0.000000
    4  C  1  X    0.000000  -0.266764   0.000000   0.000000   0.000000
    5  C  1  Y   -0.266764   0.000000   0.000000   0.000000   0.000000
    6  C  1  Z    0.000000   0.000000  -0.266764   0.000000   0.000000
    7  C  1  X    0.000000  -0.774175   0.000000   0.000000   0.000000
    8  C  1  Y   -0.774175   0.000000   0.000000   0.000000   0.000000
    9  C  1  Z    0.000000   0.000000  -0.774175   0.000000   0.000000
   10  C  1 XX    0.000000   0.000000   0.000000   1.147981  -0.662787
   11  C  1 YY    0.000000   0.000000   0.000000  -1.147981  -0.662787
   12  C  1 ZZ    0.000000   0.000000   0.000000   0.000000   1.325575
   13  C  1 XY    0.000000   0.000000   0.776236   0.000000   0.000000
   14  C  1 XZ    0.776236   0.000000   0.000000   0.000000   0.000000
   15  C  1 YZ    0.000000   0.776236   0.000000   0.000000   0.000000
   16  H  2  S    0.083392  -0.083392   0.083392   0.000000   0.000000
   17  H  2  S   -0.358652   0.358652  -0.358652   0.000000   0.000000
   18  H  2  X    0.306834   0.421454   0.306834  -0.456674   0.263661
   19  H  2  Y    0.421454   0.306834  -0.306834  -0.456674  -0.263661
   20  H  2  Z   -0.306834   0.306834   0.421454   0.000000   0.527321
   21  H  3  S   -0.083392   0.083392   0.083392   0.000000   0.000000
   22  H  3  S    0.358652  -0.358652  -0.358652   0.000000   0.000000
   23  H  3  X    0.306834   0.421454  -0.306834   0.456674  -0.263661
   24  H  3  Y    0.421454   0.306834   0.306834   0.456674   0.263661
   25  H  3  Z    0.306834  -0.306834   0.421454   0.000000   0.527321
   26  H  4  S    0.083392   0.083392  -0.083392   0.000000   0.000000
   27  H  4  S   -0.358652  -0.358652   0.358652   0.000000   0.000000
   28  H  4  X   -0.306834   0.421454   0.306834   0.456674  -0.263661
   29  H  4  Y    0.421454  -0.306834   0.306834  -0.456674  -0.263661
   30  H  4  Z    0.306834   0.306834   0.421454   0.000000  -0.527321
   31  H  5  S   -0.083392  -0.083392  -0.083392   0.000000   0.000000
   32  H  5  S    0.358652   0.358652   0.358652   0.000000   0.000000
   33  H  5  X   -0.306834   0.421454  -0.306834  -0.456674   0.263661
   34  H  5  Y    0.421454  -0.306834  -0.306834   0.456674   0.263661
   35  H  5  Z   -0.306834  -0.306834   0.421454   0.000000  -0.527321

                     31         32         33         34
                    2.4188     2.4470     2.4470     2.4470
                     A1         T2         T2         T2  
    1  C  1  S    0.603568   0.000000   0.000000   0.000000
    2  C  1  S    1.503162   0.000000   0.000000   0.000000
    3  C  1  S    1.650087   0.000000   0.000000   0.000000
    4  C  1  X    0.000000   1.355777   0.000000   0.000000
    5  C  1  Y    0.000000   0.000000   1.355777   0.000000
    6  C  1  Z    0.000000   0.000000   0.000000   1.355777
    7  C  1  X    0.000000   0.978546   0.000000   0.000000
    8  C  1  Y    0.000000   0.000000   0.978546   0.000000
    9  C  1  Z    0.000000   0.000000   0.000000   0.978546
   10  C  1 XX    0.000000   0.000000   0.000000   0.000000
   11  C  1 YY    0.000000   0.000000   0.000000   0.000000
   12  C  1 ZZ    0.000000   0.000000   0.000000   0.000000
   13  C  1 XY    0.000000   0.000000   0.000000   1.421754
   14  C  1 XZ    0.000000   0.000000   1.421754   0.000000
   15  C  1 YZ    0.000000   1.421754   0.000000   0.000000
   16  H  2  S   -0.615760  -0.895050   0.895050   0.895050
   17  H  2  S   -0.304868  -0.445599   0.445599   0.445599
   18  H  2  X    0.469681   0.517371  -0.466882  -0.466882
   19  H  2  Y   -0.469681  -0.466882   0.517371   0.466882
   20  H  2  Z   -0.469681  -0.466882   0.466882   0.517371
   21  H  3  S   -0.615760   0.895050  -0.895050   0.895050
   22  H  3  S   -0.304868   0.445599  -0.445599   0.445599
   23  H  3  X   -0.469681   0.517371  -0.466882   0.466882
   24  H  3  Y    0.469681  -0.466882   0.517371  -0.466882
   25  H  3  Z   -0.469681   0.466882  -0.466882   0.517371
   26  H  4  S   -0.615760   0.895050   0.895050  -0.895050
   27  H  4  S   -0.304868   0.445599   0.445599  -0.445599
   28  H  4  X   -0.469681   0.517371   0.466882  -0.466882
   29  H  4  Y   -0.469681   0.466882   0.517371  -0.466882
   30  H  4  Z    0.469681  -0.466882  -0.466882   0.517371
   31  H  5  S   -0.615760  -0.895050  -0.895050  -0.895050
   32  H  5  S   -0.304868  -0.445599  -0.445599  -0.445599
   33  H  5  X    0.469681   0.517371   0.466882   0.466882
   34  H  5  Y    0.469681   0.466882   0.517371   0.466882
   35  H  5  Z    0.469681   0.466882   0.466882   0.517371
 ...... END OF RHF CALCULATION ......
 STEP CPU TIME =     0.88 TOTAL CPU TIME =          0.9 (      0.0 MIN)
 TOTAL WALL CLOCK TIME=          1.0 SECONDS, CPU UTILIZATION IS    91.84%

     ---------------------------------------------------------------------
     PROPERTIES FOR THE B3LYP    DFT FUNCTIONAL (RHF  TYPE) DENSITY MATRIX
     ---------------------------------------------------------------------

          -----------------
          ENERGY COMPONENTS
          -----------------

         WAVEFUNCTION NORMALIZATION =       1.0000000000

                ONE ELECTRON ENERGY =     -79.7840884280
                TWO ELECTRON ENERGY =      25.8832002408
           NUCLEAR REPULSION ENERGY =      13.4207135227
                                      ------------------
                       TOTAL ENERGY =     -40.4801746645

 ELECTRON-ELECTRON POTENTIAL ENERGY =      25.8832002408
  NUCLEUS-ELECTRON POTENTIAL ENERGY =    -119.8888296700
   NUCLEUS-NUCLEUS POTENTIAL ENERGY =      13.4207135227
                                      ------------------
             TOTAL POTENTIAL ENERGY =     -80.5849159065
               TOTAL KINETIC ENERGY =      40.1047412420
                 VIRIAL RATIO (V/T) =       2.0093613226

          ---------------------------------------
          MULLIKEN AND LOWDIN POPULATION ANALYSES
          ---------------------------------------

     ATOMIC MULLIKEN POPULATION IN EACH MOLECULAR ORBITAL

                      1          2          3          4          5

                  2.000000   2.000000   2.000000   2.000000   2.000000

    1             2.000719   1.064077   1.017097   1.017097   1.017097
    2            -0.000180   0.233981   0.245726   0.245726   0.245726
    3            -0.000180   0.233981   0.245726   0.245726   0.245726
    4            -0.000180   0.233981   0.245726   0.245726   0.245726
    5            -0.000180   0.233981   0.245726   0.245726   0.245726

               ----- POPULATIONS IN EACH AO -----
                             MULLIKEN      LOWDIN
              1  C  1  S      2.01370     1.87280
              2  C  1  S      0.64666     0.46262
              3  C  1  S      0.40443     0.29445
              4  C  1  X      0.70747     0.62649
              5  C  1  Y      0.70747     0.62649
              6  C  1  Z      0.70747     0.62649
              7  C  1  X      0.30043     0.44332
              8  C  1  Y      0.30043     0.44332
              9  C  1  Z      0.30043     0.44332
             10  C  1 XX      0.00000     0.13359
             11  C  1 YY      0.00000     0.13359
             12  C  1 ZZ      0.00919     0.13359
             13  C  1 XY      0.00919     0.03332
             14  C  1 XZ      0.00919     0.03332
             15  C  1 YZ      0.00000     0.03332
             16  H  2  S      0.73789     0.59300
             17  H  2  S      0.20342     0.25355
             18  H  2  X      0.00989     0.02282
             19  H  2  Y      0.00989     0.02282
             20  H  2  Z      0.00989     0.02282
             21  H  3  S      0.73789     0.59300
             22  H  3  S      0.20342     0.25355
             23  H  3  X      0.00989     0.02282
             24  H  3  Y      0.00989     0.02282
             25  H  3  Z      0.00989     0.02282
             26  H  4  S      0.73789     0.59300
             27  H  4  S      0.20342     0.25355
             28  H  4  X      0.00989     0.02282
             29  H  4  Y      0.00989     0.02282
             30  H  4  Z      0.00989     0.02282
             31  H  5  S      0.73789     0.59300
             32  H  5  S      0.20342     0.25355
             33  H  5  X      0.00989     0.02282
             34  H  5  Y      0.00989     0.02282
             35  H  5  Z      0.00989     0.02282

          ----- MULLIKEN ATOMIC OVERLAP POPULATIONS -----
          (OFF-DIAGONAL ELEMENTS NEED TO BE MULTIPLIED BY 2)

             1           2           3           4           5

    1    4.4850808
    2    0.4077519   0.6331948
    3    0.4077519  -0.0233229   0.6331948
    4    0.4077519  -0.0233229  -0.0233229   0.6331948
    5    0.4077519  -0.0233229  -0.0233229  -0.0233229   0.6331948

          TOTAL MULLIKEN AND LOWDIN ATOMIC POPULATIONS
       ATOM         MULL.POP.    CHARGE          LOW.POP.     CHARGE
    1 C             6.116088   -0.116088         6.340044   -0.340044
    2 H             0.970978    0.029022         0.914989    0.085011
    3 H             0.970978    0.029022         0.914989    0.085011
    4 H             0.970978    0.029022         0.914989    0.085011
    5 H             0.970978    0.029022         0.914989    0.085011

          MULLIKEN SPHERICAL HARMONIC POPULATIONS
       ATOM           S       P       D      F      G      H      I    TOTAL
    1 C             3.06    3.02    0.03   0.00   0.00   0.00   0.00    6.12
    2 H             0.94    0.03    0.00   0.00   0.00   0.00   0.00    0.97
    3 H             0.94    0.03    0.00   0.00   0.00   0.00   0.00    0.97
    4 H             0.94    0.03    0.00   0.00   0.00   0.00   0.00    0.97
    5 H             0.94    0.03    0.00   0.00   0.00   0.00   0.00    0.97

          -------------------------------
          BOND ORDER AND VALENCE ANALYSIS     BOND ORDER THRESHOLD=0.050
          -------------------------------

                   BOND                       BOND                       BOND
  ATOM PAIR DIST  ORDER      ATOM PAIR DIST  ORDER      ATOM PAIR DIST  ORDER
    1   2  1.091  0.998        1   3  1.091  0.998        1   4  1.091  0.998
    1   5  1.091  0.998

                       TOTAL       BONDED        FREE
      ATOM            VALENCE     VALENCE     VALENCE
    1 C                 3.993       3.993       0.000
    2 H                 0.988       0.988      -0.000
    3 H                 0.988       0.988      -0.000
    4 H                 0.988       0.988      -0.000
    5 H                 0.988       0.988      -0.000

          ---------------------
          ELECTROSTATIC MOMENTS
          ---------------------

 POINT   1           X           Y           Z (BOHR)    CHARGE
                 0.000000    0.000000    0.000000        0.00 (A.U.)
         DX          DY          DZ         /D/  (DEBYE)
     0.000000   -0.000000    0.000000    0.000000
 ...... END OF PROPERTY EVALUATION ......
 STEP CPU TIME =     0.01 TOTAL CPU TIME =          0.9 (      0.0 MIN)
 TOTAL WALL CLOCK TIME=          1.0 SECONDS, CPU UTILIZATION IS    91.92%

 BEGINNING ONE ELECTRON GRADIENT...
 ..... END OF 1-ELECTRON GRADIENT ......
 STEP CPU TIME =     0.00 TOTAL CPU TIME =          0.9 (      0.0 MIN)
 TOTAL WALL CLOCK TIME=          1.0 SECONDS, CPU UTILIZATION IS    90.10%

          ----------------------
          GRADIENT OF THE ENERGY
          ----------------------
 MEMORY FOR GRID POINT CONTRIBUTIONS TO THE DFT GRADIENT=    346628 WORDS.
 STEP CPU TIME =     0.21 TOTAL CPU TIME =          1.1 (      0.0 MIN)
 TOTAL WALL CLOCK TIME=          1.2 SECONDS, CPU UTILIZATION IS    91.06%

 THE MINIMUM MEMORY REQUIRED FOR THIS RUN IS      83204 WORDS.
 USING    1058724 WORDS FOR 2E- DERIVATIVE INTEGRAL CONTRIBUTIONS.
 THE COARSE/FINE SCHWARZ SCREENINGS SKIPPED            0/           0 BLOCKS.
 THE NUMBER OF GRADIENT INTEGRAL BLOCKS COMPUTED WAS      1662
 ...... END OF 2-ELECTRON GRADIENT ......
 STEP CPU TIME =     0.01 TOTAL CPU TIME =          1.1 (      0.0 MIN)
 TOTAL WALL CLOCK TIME=          1.2 SECONDS, CPU UTILIZATION IS    91.13%

          NSERCH=  0     ENERGY=     -40.4801747

                                 -----------------------
                                 GRADIENT (HARTREE/BOHR)
                                 -----------------------
        ATOM     ZNUC       DE/DX         DE/DY         DE/DZ
 --------------------------------------------------------------
    1  C            6.0     0.0000000     0.0000000     0.0000000
    2  H            1.0    -0.0035354     0.0035354     0.0035354
    3  H            1.0     0.0035354    -0.0035354     0.0035354
    4  H            1.0     0.0035354     0.0035354    -0.0035354
    5  H            1.0    -0.0035354    -0.0035354    -0.0035354

          MAXIMUM GRADIENT = 0.0035354    RMS GRADIENT = 0.0031622

 NSERCH:   0  E=      -40.4801746645  GRAD. MAX=  0.0035354  R.M.S.=  0.0031622

          FORCE CONSTANT MATRIX NOT UPDATED --- TAKING FIRST STEP
          MIN SEARCH, CORRECT HESSIAN, TRYING PURE NR STEP
               NR STEP HAS LENGTH         =   0.024978
          RADIUS OF STEP TAKEN=   0.02498  CURRENT TRUST RADIUS=   0.30000

 BEGINNING GEOMETRY SEARCH POINT NSERCH=   1 ...

 COORDINATES OF SYMMETRY UNIQUE ATOMS (ANGS)
   ATOM   CHARGE       X              Y              Z
 ------------------------------------------------------------
 C           6.0   0.0000000000   0.0000000000   0.0000000000
 H           1.0   0.6338156056   0.6338156056   0.6338156056
 COORDINATES OF ALL ATOMS ARE (ANGS)
   ATOM   CHARGE       X              Y              Z
 ------------------------------------------------------------
 C           6.0   0.0000000000   0.0000000000   0.0000000000
 H           1.0   0.6338156056  -0.6338156056  -0.6338156056
 H           1.0  -0.6338156056   0.6338156056  -0.6338156056
 H           1.0  -0.6338156056  -0.6338156056   0.6338156056
 H           1.0   0.6338156056   0.6338156056   0.6338156056

          INTERNUCLEAR DISTANCES (ANGS.)
          ------------------------------

                1 C          2 H          3 H          4 H          5 H     

   1 C       0.0000000    1.0978008 *  1.0978008 *  1.0978008 *  1.0978008 *
   2 H       1.0978008 *  0.0000000    1.7927013 *  1.7927013 *  1.7927013 *
   3 H       1.0978008 *  1.7927013 *  0.0000000    1.7927013 *  1.7927013 *
   4 H       1.0978008 *  1.7927013 *  1.7927013 *  0.0000000    1.7927013 *
   5 H       1.0978008 *  1.7927013 *  1.7927013 *  1.7927013 *  0.0000000  

  * ... LESS THAN  3.000

 ...... END OF ONE-ELECTRON INTEGRALS ......
 STEP CPU TIME =     0.01 TOTAL CPU TIME =          1.1 (      0.0 MIN)
 TOTAL WALL CLOCK TIME=          1.2 SECONDS, CPU UTILIZATION IS    91.94%
  ...... END OF TWO-ELECTRON INTEGRALS .....
 STEP CPU TIME =     0.00 TOTAL CPU TIME =          1.1 (      0.0 MIN)
 TOTAL WALL CLOCK TIME=          1.2 SECONDS, CPU UTILIZATION IS    91.20%

          --------------------------
             R-B3LYP SCF CALCULATION
          --------------------------
         DENSITY MATRIX CONVERGENCE THRESHOLD=  2.00E-05
     COARSE -> FINE DFT GRID SWITCH THRESHOLD=  3.00E-04 (SWITCH IN $DFT)
                   HF -> DFT SWITCH THRESHOLD=  5.00E-03 (SWOFF IN $DFT)

 DIRECT SCF CALCULATION, SCHWRZ=T   FDIFF=T,  DIRTHR=  0.00E+00 NITDIR=10

 DFT CODE IS SWITCHING FROM THE FINE GRID NRAD= 96,  NLEB=  590
                      TO THE COARSE GRID NRAD0= 24, NLEB0=  110

                                                                                   NONZERO     BLOCKS
 ITER EX DEM     TOTAL ENERGY        E CHANGE  DENSITY CHANGE    DIIS ERROR      INTEGRALS    SKIPPED
          * * *   INITIATING DIIS PROCEDURE   * * *
   1  0  0      -40.4801107994   -40.4801107994   0.005369259   0.004507818          26397          0
   2  1  0      -40.4801398877    -0.0000290883   0.002004084   0.001744451          26397          0
   3  2  0      -40.4801441796    -0.0000042919   0.000841186   0.001001324          26397          0
   4  3  0      -40.4801471537    -0.0000029740   0.000020485   0.000027050          26397          0
 DFT CODE IS SWITCHING BACK TO THE FINE GRID
          * * *   INITIATING DIIS PROCEDURE   * * *
   5  4  0      -40.4803634785    -0.0002163248   0.001494149   0.001136960          26397          0
   6  5  0      -40.4803673889    -0.0000039105   0.000218690   0.000137449          26397          0
   7  6  0      -40.4803674016    -0.0000000127   0.000104867   0.000140584          26397          0
   8  7  0      -40.4803674522    -0.0000000506   0.000004010   0.000006165          26397          0
   9  8  0      -40.4803674523    -0.0000000001   0.000000120   0.000000095          26397          0

          -----------------
          DENSITY CONVERGED
          -----------------
     TIME TO FORM FOCK OPERATORS=       0.8 SECONDS (       0.1 SEC/ITER)
     FOCK TIME ON FIRST ITERATION=       0.0, LAST ITERATION=       0.1
     TIME TO SOLVE SCF EQUATIONS=       0.0 SECONDS (       0.0 SEC/ITER)

 FINAL R-B3LYP ENERGY IS      -40.4803674523 AFTER   9 ITERATIONS
 DFT EXCHANGE + CORRELATION ENERGY =        -5.5444825035
 TOTAL ELECTRON NUMBER             =        10.0000254969
 ...... END OF RHF CALCULATION ......
 STEP CPU TIME =     0.83 TOTAL CPU TIME =          2.0 (      0.0 MIN)
 TOTAL WALL CLOCK TIME=          2.1 SECONDS, CPU UTILIZATION IS    92.49%
 ..... END OF 1-ELECTRON GRADIENT ......
 STEP CPU TIME =     0.00 TOTAL CPU TIME =          2.0 (      0.0 MIN)
 TOTAL WALL CLOCK TIME=          2.1 SECONDS, CPU UTILIZATION IS    92.06%
 MEMORY FOR GRID POINT CONTRIBUTIONS TO THE DFT GRADIENT=    346628 WORDS.
 STEP CPU TIME =     0.21 TOTAL CPU TIME =          2.2 (      0.0 MIN)
 TOTAL WALL CLOCK TIME=          2.4 SECONDS, CPU UTILIZATION IS    92.77%
 ...... END OF 2-ELECTRON GRADIENT ......
 STEP CPU TIME =     0.01 TOTAL CPU TIME =          2.2 (      0.0 MIN)
 TOTAL WALL CLOCK TIME=          2.4 SECONDS, CPU UTILIZATION IS    92.80%

          NSERCH=  1     ENERGY=     -40.4803675

                                 -----------------------
                                 GRADIENT (HARTREE/BOHR)
                                 -----------------------
        ATOM     ZNUC       DE/DX         DE/DY         DE/DZ
 --------------------------------------------------------------
    1  C            6.0     0.0000000     0.0000000     0.0000000
    2  H            1.0    -0.0009367     0.0009367     0.0009367
    3  H            1.0     0.0009367    -0.0009367     0.0009367
    4  H            1.0     0.0009367     0.0009367    -0.0009367
    5  H            1.0    -0.0009367    -0.0009367    -0.0009367

          MAXIMUM GRADIENT = 0.0009367    RMS GRADIENT = 0.0008379

 NSERCH:   1  E=      -40.4803674523  GRAD. MAX=  0.0009367  R.M.S.=  0.0008379

          HESSIAN UPDATED USING THE BFGS FORMULA
             ACTUAL ENERGY CHANGE WAS  -0.0001927878
          PREDICTED ENERGY CHANGE WAS  -0.0001529526 RATIO=  1.260
          MIN SEARCH, CORRECT HESSIAN, TRYING PURE NR STEP
               NR STEP HAS LENGTH         =   0.009004
          RADIUS OF STEP TAKEN=   0.00900  CURRENT TRUST RADIUS=   0.05000

 BEGINNING GEOMETRY SEARCH POINT NSERCH=   2 ...

 COORDINATES OF SYMMETRY UNIQUE ATOMS (ANGS)
   ATOM   CHARGE       X              Y              Z
 ------------------------------------------------------------
 C           6.0   0.0000000000   0.0000000000   0.0000000000
 H           1.0   0.6351910105   0.6351910105   0.6351910105
 COORDINATES OF ALL ATOMS ARE (ANGS)
   ATOM   CHARGE       X              Y              Z
 ------------------------------------------------------------
 C           6.0   0.0000000000   0.0000000000   0.0000000000
 H           1.0   0.6351910105  -0.6351910105  -0.6351910105
 H           1.0  -0.6351910105   0.6351910105  -0.6351910105
 H           1.0  -0.6351910105  -0.6351910105   0.6351910105
 H           1.0   0.6351910105   0.6351910105   0.6351910105

          INTERNUCLEAR DISTANCES (ANGS.)
          ------------------------------

                1 C          2 H          3 H          4 H          5 H     

   1 C       0.0000000    1.1001831 *  1.1001831 *  1.1001831 *  1.1001831 *
   2 H       1.1001831 *  0.0000000    1.7965915 *  1.7965915 *  1.7965915 *
   3 H       1.1001831 *  1.7965915 *  0.0000000    1.7965915 *  1.7965915 *
   4 H       1.1001831 *  1.7965915 *  1.7965915 *  0.0000000    1.7965915 *
   5 H       1.1001831 *  1.7965915 *  1.7965915 *  1.7965915 *  0.0000000  

  * ... LESS THAN  3.000

 ...... END OF ONE-ELECTRON INTEGRALS ......
 STEP CPU TIME =     0.00 TOTAL CPU TIME =          2.2 (      0.0 MIN)
 TOTAL WALL CLOCK TIME=          2.4 SECONDS, CPU UTILIZATION IS    92.41%
  ...... END OF TWO-ELECTRON INTEGRALS .....
 STEP CPU TIME =     0.01 TOTAL CPU TIME =          2.2 (      0.0 MIN)
 TOTAL WALL CLOCK TIME=          2.4 SECONDS, CPU UTILIZATION IS    92.44%

          --------------------------
             R-B3LYP SCF CALCULATION
          --------------------------
         DENSITY MATRIX CONVERGENCE THRESHOLD=  2.00E-05
     COARSE -> FINE DFT GRID SWITCH THRESHOLD=  3.00E-04 (SWITCH IN $DFT)
                   HF -> DFT SWITCH THRESHOLD=  5.00E-03 (SWOFF IN $DFT)

 DIRECT SCF CALCULATION, SCHWRZ=T   FDIFF=T,  DIRTHR=  0.00E+00 NITDIR=10

 DFT CODE IS SWITCHING FROM THE FINE GRID NRAD= 96,  NLEB=  590
                      TO THE COARSE GRID NRAD0= 24, NLEB0=  110

                                                                                   NONZERO     BLOCKS
 ITER EX DEM     TOTAL ENERGY        E CHANGE  DENSITY CHANGE    DIIS ERROR      INTEGRALS    SKIPPED
          * * *   INITIATING DIIS PROCEDURE   * * *
   1  0  0      -40.4801490118   -40.4801490118   0.002870069   0.002207235          26397          0
   2  1  0      -40.4801580630    -0.0000090512   0.000891860   0.000691100          26397          0
   3  2  0      -40.4801585397    -0.0000004767   0.000418083   0.000522825          26397          0
   4  3  0      -40.4801593098    -0.0000007701   0.000013179   0.000019007          26397          0
 DFT CODE IS SWITCHING BACK TO THE FINE GRID
          * * *   INITIATING DIIS PROCEDURE   * * *
   5  4  0      -40.4803785499    -0.0002192401   0.001474313   0.001118794          26397          0
   6  5  0      -40.4803823291    -0.0000037793   0.000220268   0.000141430          26397          0
   7  6  0      -40.4803823401    -0.0000000110   0.000108398   0.000145409          26397          0
   8  7  0      -40.4803823946    -0.0000000545   0.000003778   0.000006892          26397          0
   9  8  0      -40.4803823947    -0.0000000001   0.000000118   0.000000095          26397          0

          -----------------
          DENSITY CONVERGED
          -----------------
     TIME TO FORM FOCK OPERATORS=       0.8 SECONDS (       0.1 SEC/ITER)
     FOCK TIME ON FIRST ITERATION=       0.0, LAST ITERATION=       0.1
     TIME TO SOLVE SCF EQUATIONS=       0.0 SECONDS (       0.0 SEC/ITER)

 FINAL R-B3LYP ENERGY IS      -40.4803823947 AFTER   9 ITERATIONS
 DFT EXCHANGE + CORRELATION ENERGY =        -5.5418203085
 TOTAL ELECTRON NUMBER             =        10.0000253568
 ...... END OF RHF CALCULATION ......
 STEP CPU TIME =     0.82 TOTAL CPU TIME =          3.0 (      0.1 MIN)
 TOTAL WALL CLOCK TIME=          3.2 SECONDS, CPU UTILIZATION IS    92.92%
 ..... END OF 1-ELECTRON GRADIENT ......
 STEP CPU TIME =     0.01 TOTAL CPU TIME =          3.0 (      0.1 MIN)
 TOTAL WALL CLOCK TIME=          3.3 SECONDS, CPU UTILIZATION IS    92.94%
 MEMORY FOR GRID POINT CONTRIBUTIONS TO THE DFT GRADIENT=    346628 WORDS.
 STEP CPU TIME =     0.21 TOTAL CPU TIME =          3.2 (      0.1 MIN)
 TOTAL WALL CLOCK TIME=          3.5 SECONDS, CPU UTILIZATION IS    93.37%
 ...... END OF 2-ELECTRON GRADIENT ......
 STEP CPU TIME =     0.00 TOTAL CPU TIME =          3.2 (      0.1 MIN)
 TOTAL WALL CLOCK TIME=          3.5 SECONDS, CPU UTILIZATION IS    93.10%

          NSERCH=  2     ENERGY=     -40.4803824

                                 -----------------------
                                 GRADIENT (HARTREE/BOHR)
                                 -----------------------
        ATOM     ZNUC       DE/DX         DE/DY         DE/DZ
 --------------------------------------------------------------
    1  C            6.0     0.0000000     0.0000000     0.0000000
    2  H            1.0    -0.0000234     0.0000234     0.0000234
    3  H            1.0     0.0000234    -0.0000234     0.0000234
    4  H            1.0     0.0000234     0.0000234    -0.0000234
    5  H            1.0    -0.0000234    -0.0000234    -0.0000234

          MAXIMUM GRADIENT = 0.0000234    RMS GRADIENT = 0.0000209

 NSERCH:   2  E=      -40.4803823947  GRAD. MAX=  0.0000234  R.M.S.=  0.0000209


      ***** EQUILIBRIUM GEOMETRY LOCATED *****
 COORDINATES OF SYMMETRY UNIQUE ATOMS (ANGS)
   ATOM   CHARGE       X              Y              Z
 ------------------------------------------------------------
 C           6.0   0.0000000000   0.0000000000   0.0000000000
 H           1.0   0.6351910105   0.6351910105   0.6351910105
 COORDINATES OF ALL ATOMS ARE (ANGS)
   ATOM   CHARGE       X              Y              Z
 ------------------------------------------------------------
 C           6.0   0.0000000000   0.0000000000   0.0000000000
 H           1.0   0.6351910105  -0.6351910105  -0.6351910105
 H           1.0  -0.6351910105   0.6351910105  -0.6351910105
 H           1.0  -0.6351910105  -0.6351910105   0.6351910105
 H           1.0   0.6351910105   0.6351910105   0.6351910105

          INTERNUCLEAR DISTANCES (ANGS.)
          ------------------------------

                1 C          2 H          3 H          4 H          5 H     

   1 C       0.0000000    1.1001831 *  1.1001831 *  1.1001831 *  1.1001831 *
   2 H       1.1001831 *  0.0000000    1.7965915 *  1.7965915 *  1.7965915 *
   3 H       1.1001831 *  1.7965915 *  0.0000000    1.7965915 *  1.7965915 *
   4 H       1.1001831 *  1.7965915 *  1.7965915 *  0.0000000    1.7965915 *
   5 H       1.1001831 *  1.7965915 *  1.7965915 *  1.7965915 *  0.0000000  

  * ... LESS THAN  3.000


          NUCLEAR ENERGY    =       13.3110346023
          ELECTRONIC ENERGY =      -53.7914169969
          TOTAL ENERGY      =      -40.4803823947

          ------------------
          MOLECULAR ORBITALS
          ------------------

                      1          2          3          4          5
                  -10.1711    -0.6868    -0.3850    -0.3850    -0.3850
                     A1         A1         T2         T2         T2  
    1  C  1  S    1.006687   0.024790   0.000000   0.000000   0.000000
    2  C  1  S    0.016910  -0.380383   0.000000   0.000000   0.000000
    3  C  1  S   -0.014579  -0.224428   0.000000   0.000000   0.000000
    4  C  1  X    0.000000   0.000000  -0.439215   0.000000   0.000000
    5  C  1  Y    0.000000   0.000000   0.000000  -0.439215   0.000000
    6  C  1  Z    0.000000   0.000000   0.000000   0.000000  -0.439215
    7  C  1  X    0.000000   0.000000  -0.180468   0.000000   0.000000
    8  C  1  Y    0.000000   0.000000   0.000000  -0.180468   0.000000
    9  C  1  Z    0.000000   0.000000   0.000000   0.000000  -0.180468
   10  C  1 XX    0.000000   0.000000   0.000000   0.000000   0.000000
   11  C  1 YY    0.000000   0.000000   0.000000   0.000000   0.000000
   12  C  1 ZZ    0.000000   0.000000   0.000000   0.000000   0.000000
   13  C  1 XY    0.000000   0.000000   0.000000   0.000000  -0.019025
   14  C  1 XZ    0.000000   0.000000   0.000000  -0.019025   0.000000
   15  C  1 YZ    0.000000   0.000000  -0.019025   0.000000   0.000000
   16  H  2  S   -0.001495  -0.182310  -0.222345   0.222345   0.222345
   17  H  2  S    0.002167  -0.032316  -0.101918   0.101918   0.101918
   18  H  2  X    0.001129   0.014284  -0.005178  -0.009666  -0.009666
   19  H  2  Y   -0.001129  -0.014284  -0.009666  -0.005178   0.009666
   20  H  2  Z   -0.001129  -0.014284  -0.009666   0.009666  -0.005178
   21  H  3  S   -0.001495  -0.182310   0.222345  -0.222345   0.222345
   22  H  3  S    0.002167  -0.032316   0.101918  -0.101918   0.101918
   23  H  3  X   -0.001129  -0.014284  -0.005178  -0.009666   0.009666
   24  H  3  Y    0.001129   0.014284  -0.009666  -0.005178  -0.009666
   25  H  3  Z   -0.001129  -0.014284   0.009666  -0.009666  -0.005178
   26  H  4  S   -0.001495  -0.182310   0.222345   0.222345  -0.222345
   27  H  4  S    0.002167  -0.032316   0.101918   0.101918  -0.101918
   28  H  4  X   -0.001129  -0.014284  -0.005178   0.009666  -0.009666
   29  H  4  Y   -0.001129  -0.014284   0.009666  -0.005178  -0.009666
   30  H  4  Z    0.001129   0.014284  -0.009666  -0.009666  -0.005178
   31  H  5  S   -0.001495  -0.182310  -0.222345  -0.222345  -0.222345
   32  H  5  S    0.002167  -0.032316  -0.101918  -0.101918  -0.101918
   33  H  5  X    0.001129   0.014284  -0.005178   0.009666   0.009666
   34  H  5  Y    0.001129   0.014284   0.009666  -0.005178   0.009666
   35  H  5  Z    0.001129   0.014284   0.009666   0.009666  -0.005178

                      6          7          8          9         10
                    0.0759     0.1458     0.1458     0.1458     0.4169
                     A1         T2         T2         T2         T2  
    1  C  1  S    0.064599   0.000000   0.000000   0.000000   0.000000
    2  C  1  S   -0.163668   0.000000   0.000000   0.000000   0.000000
    3  C  1  S   -2.147259   0.000000   0.000000   0.000000   0.000000
    4  C  1  X    0.000000   0.000000   0.380000   0.000000   0.297402
    5  C  1  Y    0.000000   0.380000   0.000000   0.000000   0.000000
    6  C  1  Z    0.000000   0.000000   0.000000   0.380000   0.000000
    7  C  1  X    0.000000   0.000000   1.263097   0.000000  -1.105831
    8  C  1  Y    0.000000   1.263097   0.000000   0.000000   0.000000
    9  C  1  Z    0.000000   0.000000   0.000000   1.263097   0.000000
   10  C  1 XX    0.000000   0.000000   0.000000   0.000000   0.000000
   11  C  1 YY    0.000000   0.000000   0.000000   0.000000   0.000000
   12  C  1 ZZ    0.000000   0.000000   0.000000   0.000000   0.000000
   13  C  1 XY    0.000000   0.000000   0.000000  -0.002331   0.000000
   14  C  1 XZ    0.000000  -0.002331   0.000000   0.000000   0.000000
   15  C  1 YZ    0.000000   0.000000  -0.002331   0.000000   0.133794
   16  H  2  S    0.035657   0.072160  -0.072160   0.072160   0.480241
   17  H  2  S    0.794540   1.176960  -1.176960   1.176960  -0.113495
   18  H  2  X   -0.000128   0.001498   0.006855   0.001498  -0.022647
   19  H  2  Y    0.000128   0.006855   0.001498  -0.001498  -0.018887
   20  H  2  Z    0.000128  -0.001498   0.001498   0.006855  -0.018887
   21  H  3  S    0.035657  -0.072160   0.072160   0.072160  -0.480241
   22  H  3  S    0.794540  -1.176960   1.176960   1.176960   0.113495
   23  H  3  X    0.000128   0.001498   0.006855  -0.001498  -0.022647
   24  H  3  Y   -0.000128   0.006855   0.001498   0.001498  -0.018887
   25  H  3  Z    0.000128   0.001498  -0.001498   0.006855   0.018887
   26  H  4  S    0.035657   0.072160   0.072160  -0.072160  -0.480241
   27  H  4  S    0.794540   1.176960   1.176960  -1.176960   0.113495
   28  H  4  X    0.000128  -0.001498   0.006855   0.001498  -0.022647
   29  H  4  Y    0.000128   0.006855  -0.001498   0.001498   0.018887
   30  H  4  Z   -0.000128   0.001498   0.001498   0.006855  -0.018887
   31  H  5  S    0.035657  -0.072160  -0.072160  -0.072160   0.480241
   32  H  5  S    0.794540  -1.176960  -1.176960  -1.176960  -0.113495
   33  H  5  X   -0.000128  -0.001498   0.006855  -0.001498  -0.022647
   34  H  5  Y   -0.000128   0.006855  -0.001498  -0.001498   0.018887
   35  H  5  Z   -0.000128  -0.001498  -0.001498   0.006855   0.018887

                     11         12         13         14         15
                    0.4169     0.4169     0.6530     0.6530     0.6530
                     T2         T2         T2         T2         T2  
    1  C  1  S    0.000000   0.000000   0.000000   0.000000   0.000000
    2  C  1  S    0.000000   0.000000   0.000000   0.000000   0.000000
    3  C  1  S    0.000000   0.000000   0.000000   0.000000   0.000000
    4  C  1  X    0.000000   0.000000   0.000000  -0.868370   0.000000
    5  C  1  Y    0.297402   0.000000  -0.868370   0.000000   0.000000
    6  C  1  Z    0.000000   0.297402   0.000000   0.000000  -0.868370
    7  C  1  X    0.000000   0.000000   0.000000   1.806602   0.000000
    8  C  1  Y   -1.105831   0.000000   1.806602   0.000000   0.000000
    9  C  1  Z    0.000000  -1.105831   0.000000   0.000000   1.806602
   10  C  1 XX    0.000000   0.000000   0.000000   0.000000   0.000000
   11  C  1 YY    0.000000   0.000000   0.000000   0.000000   0.000000
   12  C  1 ZZ    0.000000   0.000000   0.000000   0.000000   0.000000
   13  C  1 XY    0.000000   0.133794   0.000000   0.000000   0.280913
   14  C  1 XZ    0.133794   0.000000   0.280913   0.000000   0.000000
   15  C  1 YZ    0.000000   0.000000   0.000000   0.280913   0.000000
   16  H  2  S   -0.480241  -0.480241  -0.233961   0.233961  -0.233961
   17  H  2  S    0.113495   0.113495   1.131745  -1.131745   1.131745
   18  H  2  X   -0.018887  -0.018887  -0.101131   0.044385  -0.101131
   19  H  2  Y   -0.022647   0.018887   0.044385  -0.101131   0.101131
   20  H  2  Z    0.018887  -0.022647   0.101131  -0.101131   0.044385
   21  H  3  S    0.480241  -0.480241   0.233961  -0.233961  -0.233961
   22  H  3  S   -0.113495   0.113495  -1.131745   1.131745   1.131745
   23  H  3  X   -0.018887   0.018887  -0.101131   0.044385   0.101131
   24  H  3  Y   -0.022647  -0.018887   0.044385  -0.101131  -0.101131
   25  H  3  Z   -0.018887  -0.022647  -0.101131   0.101131   0.044385
   26  H  4  S   -0.480241   0.480241  -0.233961  -0.233961   0.233961
   27  H  4  S    0.113495  -0.113495   1.131745   1.131745  -1.131745
   28  H  4  X    0.018887  -0.018887   0.101131   0.044385  -0.101131
   29  H  4  Y   -0.022647  -0.018887   0.044385   0.101131  -0.101131
   30  H  4  Z   -0.018887  -0.022647  -0.101131  -0.101131   0.044385
   31  H  5  S    0.480241   0.480241   0.233961   0.233961   0.233961
   32  H  5  S   -0.113495  -0.113495  -1.131745  -1.131745  -1.131745
   33  H  5  X    0.018887   0.018887   0.101131   0.044385   0.101131
   34  H  5  Y   -0.022647   0.018887   0.044385   0.101131   0.101131
   35  H  5  Z    0.018887  -0.022647   0.101131   0.101131   0.044385

     ---------------------------------------------------------------------
     PROPERTIES FOR THE B3LYP    DFT FUNCTIONAL (RHF  TYPE) DENSITY MATRIX
     ---------------------------------------------------------------------

          -----------------
          ENERGY COMPONENTS
          -----------------

         WAVEFUNCTION NORMALIZATION =       1.0000000000

                ONE ELECTRON ENERGY =     -79.5794052247
                TWO ELECTRON ENERGY =      25.7879882278
           NUCLEAR REPULSION ENERGY =      13.3110346023
                                      ------------------
                       TOTAL ENERGY =     -40.4803823947

 ELECTRON-ELECTRON POTENTIAL ENERGY =      25.7879882278
  NUCLEUS-ELECTRON POTENTIAL ENERGY =    -119.6379894089
   NUCLEUS-NUCLEUS POTENTIAL ENERGY =      13.3110346023
                                      ------------------
             TOTAL POTENTIAL ENERGY =     -80.5389665789
               TOTAL KINETIC ENERGY =      40.0585841842
                 VIRIAL RATIO (V/T) =       2.0105295337

          ---------------------------------------
          MULLIKEN AND LOWDIN POPULATION ANALYSES
          ---------------------------------------

     ATOMIC MULLIKEN POPULATION IN EACH MOLECULAR ORBITAL

                      1          2          3          4          5

                  2.000000   2.000000   2.000000   2.000000   2.000000

    1             2.000605   1.079502   1.015488   1.015488   1.015488
    2            -0.000151   0.230124   0.246128   0.246128   0.246128
    3            -0.000151   0.230124   0.246128   0.246128   0.246128
    4            -0.000151   0.230124   0.246128   0.246128   0.246128
    5            -0.000151   0.230124   0.246128   0.246128   0.246128

               ----- POPULATIONS IN EACH AO -----
                             MULLIKEN      LOWDIN
              1  C  1  S      2.01340     1.87641
              2  C  1  S      0.64883     0.46259
              3  C  1  S      0.41787     0.29811
              4  C  1  X      0.70299     0.62256
              5  C  1  Y      0.70299     0.62256
              6  C  1  Z      0.70299     0.62256
              7  C  1  X      0.30345     0.44603
              8  C  1  Y      0.30345     0.44603
              9  C  1  Z      0.30345     0.44603
             10  C  1 XX      0.00000     0.13402
             11  C  1 YY      0.00000     0.13402
             12  C  1 ZZ      0.00905     0.13402
             13  C  1 XY      0.00905     0.03273
             14  C  1 XZ      0.00905     0.03273
             15  C  1 YZ      0.00000     0.03273
             16  H  2  S      0.73403     0.59139
             17  H  2  S      0.20520     0.25634
             18  H  2  X      0.00971     0.02216
             19  H  2  Y      0.00971     0.02216
             20  H  2  Z      0.00971     0.02216
             21  H  3  S      0.73403     0.59139
             22  H  3  S      0.20520     0.25634
             23  H  3  X      0.00971     0.02216
             24  H  3  Y      0.00971     0.02216
             25  H  3  Z      0.00971     0.02216
             26  H  4  S      0.73403     0.59139
             27  H  4  S      0.20520     0.25634
             28  H  4  X      0.00971     0.02216
             29  H  4  Y      0.00971     0.02216
             30  H  4  Z      0.00971     0.02216
             31  H  5  S      0.73403     0.59139
             32  H  5  S      0.20520     0.25634
             33  H  5  X      0.00971     0.02216
             34  H  5  Y      0.00971     0.02216
             35  H  5  Z      0.00971     0.02216

          ----- MULLIKEN ATOMIC OVERLAP POPULATIONS -----
          (OFF-DIAGONAL ELEMENTS NEED TO BE MULTIPLIED BY 2)

             1           2           3           4           5

    1    4.5017069
    2    0.4062158   0.6324025
    3    0.4062158  -0.0234203   0.6324025
    4    0.4062158  -0.0234203  -0.0234203   0.6324025
    5    0.4062158  -0.0234203  -0.0234203  -0.0234203   0.6324025

          TOTAL MULLIKEN AND LOWDIN ATOMIC POPULATIONS
       ATOM         MULL.POP.    CHARGE          LOW.POP.     CHARGE
    1 C             6.126570   -0.126570         6.343126   -0.343126
    2 H             0.968357    0.031643         0.914218    0.085782
    3 H             0.968357    0.031643         0.914218    0.085782
    4 H             0.968357    0.031643         0.914218    0.085782
    5 H             0.968357    0.031643         0.914218    0.085782

          MULLIKEN SPHERICAL HARMONIC POPULATIONS
       ATOM           S       P       D      F      G      H      I    TOTAL
    1 C             3.08    3.02    0.03   0.00   0.00   0.00   0.00    6.13
    2 H             0.94    0.03    0.00   0.00   0.00   0.00   0.00    0.97
    3 H             0.94    0.03    0.00   0.00   0.00   0.00   0.00    0.97
    4 H             0.94    0.03    0.00   0.00   0.00   0.00   0.00    0.97
    5 H             0.94    0.03    0.00   0.00   0.00   0.00   0.00    0.97

          -------------------------------
          BOND ORDER AND VALENCE ANALYSIS     BOND ORDER THRESHOLD=0.050
          -------------------------------

                   BOND                       BOND                       BOND
  ATOM PAIR DIST  ORDER      ATOM PAIR DIST  ORDER      ATOM PAIR DIST  ORDER
    1   2  1.100  0.998        1   3  1.100  0.998        1   4  1.100  0.998
    1   5  1.100  0.998

                       TOTAL       BONDED        FREE
      ATOM            VALENCE     VALENCE     VALENCE
    1 C                 3.991       3.991       0.000
    2 H                 0.988       0.988       0.000
    3 H                 0.988       0.988       0.000
    4 H                 0.988       0.988       0.000
    5 H                 0.988       0.988       0.000

          ---------------------
          ELECTROSTATIC MOMENTS
          ---------------------

 POINT   1           X           Y           Z (BOHR)    CHARGE
                 0.000000    0.000000    0.000000        0.00 (A.U.)
         DX          DY          DZ         /D/  (DEBYE)
     0.000000   -0.000000    0.000000    0.000000
 ...... END OF PROPERTY EVALUATION ......
 STEP CPU TIME =     0.01 TOTAL CPU TIME =          3.2 (      0.1 MIN)
 TOTAL WALL CLOCK TIME=          3.5 SECONDS, CPU UTILIZATION IS    92.86%
  $VIB   
          IVIB=   0 IATOM=   0 ICOORD=   0 E=      -40.4803823947
  0.000000000E+00 0.000000000E+00 0.000000000E+00-2.339343529E-05 2.339343529E-05
  2.339343529E-05 2.339343529E-05-2.339343529E-05 2.339343529E-05 2.339343529E-05
  2.339343529E-05-2.339343529E-05-2.339343529E-05-2.339343529E-05-2.339343529E-05
  2.257541709E-15-5.643854273E-16 2.257541709E-15
 ......END OF GEOMETRY SEARCH......
 STEP CPU TIME =     0.00 TOTAL CPU TIME =          3.2 (      0.1 MIN)
 TOTAL WALL CLOCK TIME=          3.5 SECONDS, CPU UTILIZATION IS    92.59%


     *********************************************************
     THE HESSIAN WILL NOW BE COMPUTED AT THE STATIONARY POINT.
     *********************************************************

     ---------------------------------
     HESSIAN MATRIX CONTROL PARAMETERS
     ---------------------------------
     METHOD=SEMINUM    NVIB  =       2   VIBSIZ= 0.01000
     RDHESS=       F   PURIFY=       F   PRTIFC=       F
     VIBANL=       F   DECOMP=       F   PROJCT=       F
     SCLFAC= 1.00000   PRTSCN=       F   NPRT  =       0
     PULCOR=       F   NPUN  =       0   REDOVB=       T
     HSSTYP=GENERAL 

               * * * EFFICIENCY NOTE * * *
 THIS CALCULATION CAN BE RUN WITH DIFFERENTIATION METHOD=ANALYTIC
 THIS MIGHT BE MORE ACCURATE AND/OR FASTER THAN YOUR CHOICE,
 BUT THE REQUESTED CALCULATION METHOD=SEMINUM  IS PROCEEDING.


 THE VIB 0 GEOMETRY GRADIENT IS

 UNITS ARE HARTREE/BOHR    E'X               E'Y               E'Z 
    1 C                0.000000000       0.000000000       0.000000000
    2 H               -0.000023393       0.000023393       0.000023393
    3 H                0.000023393      -0.000023393       0.000023393
[...]

                                                                                   NONZERO     BLOCKS
 ITER EX DEM     TOTAL ENERGY        E CHANGE  DENSITY CHANGE    DIIS ERROR      INTEGRALS    SKIPPED
          * * *   INITIATING DIIS PROCEDURE   * * *
   1  0  0      -40.4801478906   -40.4801478906   0.001393248   0.001024842         187135          0
   2  1  0      -40.4801525664    -0.0000046758   0.000152160   0.000160422         187135          0
 DFT CODE IS SWITCHING BACK TO THE FINE GRID
          * * *   INITIATING DIIS PROCEDURE   * * *
   3  2  0      -40.4803710868    -0.0002185204   0.001481344   0.001142960         187135          0
   4  3  0      -40.4803748530    -0.0000037662   0.000289712   0.000204213         187135          0
   5  4  0      -40.4803748607    -0.0000000077   0.000156620   0.000209072         187135          0
   6  5  0      -40.4803749762    -0.0000001155   0.000008381   0.000012092         187135          0
   7  6  0      -40.4803749764    -0.0000000003   0.000001727   0.000001547         187135          0
   8  7  0      -40.4803749764    -0.0000000000   0.000000055   0.000000082         187135          0

          -----------------
          DENSITY CONVERGED
          -----------------
     TIME TO FORM FOCK OPERATORS=       2.3 SECONDS (       0.3 SEC/ITER)
     FOCK TIME ON FIRST ITERATION=       0.0, LAST ITERATION=       0.4
     TIME TO SOLVE SCF EQUATIONS=       0.0 SECONDS (       0.0 SEC/ITER)

 FINAL R-B3LYP ENERGY IS      -40.4803749764 AFTER   8 ITERATIONS
 DFT EXCHANGE + CORRELATION ENERGY =        -5.5426715069
 TOTAL ELECTRON NUMBER             =        10.0000253691
 ...... END OF RHF CALCULATION ......
 STEP CPU TIME =     2.31 TOTAL CPU TIME =         36.5 (      0.6 MIN)
 TOTAL WALL CLOCK TIME=         37.6 SECONDS, CPU UTILIZATION IS    97.26%
 ..... END OF 1-ELECTRON GRADIENT ......
 STEP CPU TIME =     0.01 TOTAL CPU TIME =         36.5 (      0.6 MIN)
 TOTAL WALL CLOCK TIME=         37.6 SECONDS, CPU UTILIZATION IS    97.26%
 MEMORY FOR GRID POINT CONTRIBUTIONS TO THE DFT GRADIENT=    346613 WORDS.
 STEP CPU TIME =     0.52 TOTAL CPU TIME =         37.1 (      0.6 MIN)
 TOTAL WALL CLOCK TIME=         38.1 SECONDS, CPU UTILIZATION IS    97.27%
 ...... END OF 2-ELECTRON GRADIENT ......
 STEP CPU TIME =     0.04 TOTAL CPU TIME =         37.1 (      0.6 MIN)
 TOTAL WALL CLOCK TIME=         38.1 SECONDS, CPU UTILIZATION IS    97.30%

 UNITS ARE HARTREE/BOHR    E'X               E'Y               E'Z 
    1 C                0.000932310       0.000932092       0.001356690
    2 H                0.000088561       0.000106801       0.000124908
    3 H                0.000106766       0.000088602       0.000124940
    4 H               -0.000088839      -0.000088771      -0.000146131
    5 H               -0.001038798      -0.001038725      -0.001460407
  $VIB   
          IVIB=   2 IATOM=   5 ICOORD=   3 E=      -40.4803749764
  9.323102228E-04 9.320922585E-04 1.356689914E-03 8.856077484E-05 1.068011151E-04
  1.249079194E-04 1.067655986E-04 8.860185703E-05 1.249399968E-04-8.883857473E-05
 -8.877067478E-05-1.461305792E-04-1.038798021E-03-1.038724556E-03-1.460407251E-03
  1.650075193E-03 1.658824793E-03 2.273667075E-05
 ...... END OF NUMERICAL HESSIAN CALCULATION ......
 STEP CPU TIME =     0.01 TOTAL CPU TIME =         37.1 (      0.6 MIN)
 TOTAL WALL CLOCK TIME=         38.2 SECONDS, CPU UTILIZATION IS    97.27%

          ---------------
          ENERGY GRADIENT
          ---------------

 UNITS ARE HARTREE/BOHR    E'X               E'Y               E'Z 
    1 C                0.000000000       0.000000000       0.000000000
    2 H               -0.000023393       0.000023393       0.000023393
    3 H                0.000023393      -0.000023393       0.000023393
    4 H                0.000023393       0.000023393      -0.000023393
    5 H               -0.000023393      -0.000023393      -0.000023393

          -------------------------------
          CARTESIAN FORCE CONSTANT MATRIX
          -------------------------------

                                   1                          2
                               C                          H         
                          X        Y        Z        X        Y        Z
  1   C            X 0.541536 0.000001 0.000000-0.135384 0.092227 0.092227
                   Y 0.000001 0.541536 0.000000 0.092227-0.135384-0.092227
                   Z 0.000000 0.000000 0.541536 0.092227-0.092227-0.135384
  2   H            X-0.135384 0.092227 0.092227 0.143387-0.100539-0.100539
                   Y 0.092227-0.135384-0.092227-0.100539 0.143387 0.100539
                   Z 0.092227-0.092227-0.135384-0.100539 0.100539 0.143387
  3   H            X-0.135384 0.092227-0.092227-0.010137 0.008313-0.011147
                   Y 0.092227-0.135384 0.092227 0.008313-0.010137 0.011147
                   Z-0.092227 0.092227-0.135384 0.011147-0.011147 0.012270
  4   H            X-0.135384-0.092227 0.092227-0.010137-0.011147 0.008313
                   Y-0.092227-0.135384 0.092227 0.011147 0.012270-0.011147
                   Z 0.092227 0.092227-0.135384 0.008313 0.011147-0.010137
  5   H            X-0.135384-0.092227-0.092227 0.012270 0.011147 0.011147
                   Y-0.092227-0.135384-0.092227-0.011147-0.010137-0.008313
                   Z-0.092227-0.092227-0.135384-0.011147-0.008313-0.010137

                                   3                          4
                               H                          H         
                          X        Y        Z        X        Y        Z
  3   H            X 0.143387-0.100539 0.100539 0.012270-0.011147 0.011147
                   Y-0.100539 0.143387-0.100539 0.011147-0.010137 0.008313
                   Z 0.100539-0.100539 0.143387-0.011147 0.008313-0.010137
  4   H            X 0.012270 0.011147-0.011147 0.143387 0.100539-0.100539
                   Y-0.011147-0.010137 0.008313 0.100539 0.143387-0.100539
                   Z 0.011147 0.008313-0.010137-0.100539-0.100539 0.143387
  5   H            X-0.010137-0.011147-0.008313-0.010137-0.008313-0.011147
                   Y 0.011147 0.012270 0.011147-0.008313-0.010137-0.011147
                   Z-0.008313-0.011147-0.010137 0.011147 0.011147 0.012270

                                   5
                               H         
                          X        Y        Z
  5   H            X 0.143387 0.100539 0.100539
                   Y 0.100539 0.143387 0.100539
                   Z 0.100539 0.100539 0.143387

          ------------------------          ----------------
          DIPOLE DERIVATIVE TENSOR          (DEBYE/ANGSTROM)
          ------------------------          ----------------

        ATOM                 MU-X           MU-Y           MU-Z
     C          D/DX     0.012761805   -0.000012251   -0.000000560
                D/DY    -0.000012251    0.012765206   -0.000000574
                D/DZ    -0.000011670   -0.000001774    0.012759151
     H          D/DX    -0.003297944    0.313898846    0.313893219
                D/DY     0.313901375   -0.003297862   -0.313894449
                D/DZ     0.313900252   -0.313895273   -0.003295357
     H          D/DX    -0.003297944    0.313898846   -0.313893219
                D/DY     0.313901375   -0.003297862    0.313894449
                D/DZ    -0.313900252    0.313895273   -0.003295357
     H          D/DX    -0.003297944   -0.313898846    0.313893219
                D/DY    -0.313901375   -0.003297862    0.313894449
                D/DZ     0.313900252    0.313895273   -0.003295357
     H          D/DX    -0.003297944   -0.313898846   -0.313893219
                D/DY    -0.313901375   -0.003297862   -0.313894449
                D/DZ    -0.313900252   -0.313895273   -0.003295357

          --------------------------------------------------------
          NORMAL COORDINATE ANALYSIS IN THE HARMONIC APPROXIMATION
          --------------------------------------------------------

          ATOMIC WEIGHTS (AMU)

    1     C                12.00000
    2     H                 1.00782
    3     H                 1.00782
    4     H                 1.00782
    5     H                 1.00782

 MODES    1 TO    6 ARE TAKEN AS ROTATIONS AND TRANSLATIONS.

 ANALYZING SYMMETRY OF NORMAL MODES...
 WATCH OUT!! THE COUNTING OF DEGENERATE MODES COUNTS INDIVIDUAL MODES,
 E.G. 2*E MEANS ONE (1) SET OF DEGENERATE E MODES

 --- SYMMETRY FOR NORMAL MODES ---
 INCLUDING TRANSLATION AND ROTATION
    1*A1     0*A2     2*E      3*T1     9*T2  
 EXCLUDING TRANSLATION AND ROTATION (SAYVETZ < 0.01)
    1*A1     0*A2     2*E      0*T1     6*T2  

     FREQUENCIES IN CM**-1, IR INTENSITIES IN DEBYE**2/AMU-ANGSTROM**2,
     REDUCED MASSES IN AMU.

                            1           2           3           4           5
       FREQUENCY:        27.00       26.99       26.97        0.62        0.01  
        SYMMETRY:         T1          T1          T1          T2          T2  
    REDUCED MASS:      1.00783     1.00783     1.00783     3.20629     3.20629
    IR INTENSITY:      0.00000     0.00000     0.00000     0.00000     0.00000

  1   C            X  0.00007328  0.00014664  0.00000006  0.17656789  0.00001246
                   Y -0.00000091  0.00000015  0.00014681  0.08779434  0.21671692
                   Z  0.00000007 -0.00000088 -0.00007338  0.15327808 -0.12414515
  2   H            X -0.35216249 -0.35197413 -0.00000003  0.17678223  0.00001128
                   Y -0.35217868  0.00005681 -0.35203179  0.08787530  0.21694374
                   Z -0.00005796 -0.35217834  0.35210518  0.15341209 -0.12437253
  3   H            X  0.35219392 -0.35208931  0.00000066  0.17663970  0.00001143
                   Y  0.35217754 -0.00005836 -0.35203106  0.08772744  0.21694811
                   Z  0.00005783  0.35217658 -0.35225188  0.15314136 -0.12391569
  4   H            X -0.35204743  0.35238248 -0.00000095  0.17649276  0.00001386
                   Y  0.35217686 -0.00005736  0.35232530  0.08771195  0.21648609
                   Z  0.00005710  0.35217750  0.35210417  0.15311969 -0.12437754
  5   H            X  0.35230898  0.35226730 -0.00000027  0.17635040  0.00001383
                   Y -0.35217937  0.00005782  0.35232457  0.08785994  0.21648149
                   Z -0.00005723 -0.35217926 -0.35225087  0.15343375 -0.12391030

 TRANS. SAYVETZ    X  0.00117459  0.00235066  0.00000010  2.83060635  0.00020035
                   Y -0.00001463  0.00000068  0.00235336  1.40745468  3.47424565
                   Z  0.00000054 -0.00001410 -0.00117628  2.45724146 -1.99020356
               TOTAL  0.00117468  0.00235070  0.00263096  4.00391016  4.00390973

   ROT. SAYVETZ    X  0.00000342 -0.00000467 -3.40832219  0.00008975  0.00223600
                   Y  0.00055676  3.40832229 -0.00000468 -0.00140758 -0.00000656
                   Z -3.40832273  0.00055734 -0.00000343  0.00070254 -0.00001099
               TOTAL  3.40832278  3.40832234  3.40832219  0.00157572  0.00223604

                            6           7           8           9          10
       FREQUENCY:         0.62     1309.63     1309.63     1309.63     1530.79  
        SYMMETRY:         T2          T2          T2          T2          E   
    REDUCED MASS:      3.20629     1.17900     1.17900     1.17900     1.00783
    IR INTENSITY:      0.00000     0.28274     0.28274     0.28275     0.00000

  1   C            X  0.17664098 -0.00883832  0.03483611 -0.10916270  0.00000001
                   Y -0.08777346  0.00333536 -0.10936234 -0.03517003 -0.00000001
                   Z -0.15320596  0.11453797  0.00587281 -0.00739944  0.00000002
  2   H            X  0.17686169 -0.19330874  0.08911960  0.40426626 -0.39537760
                   Y -0.08771121  0.21994299  0.27158256  0.29429552 -0.28007130
                   Z -0.15305068 -0.31827102 -0.28614941  0.15988787 -0.11530639
  3   H            X  0.17671209  0.23349946  0.11100362  0.37669349  0.39537761
                   Y -0.08785550 -0.20686557  0.24969854  0.32186843  0.28007131
                   Z -0.15335836 -0.36363461  0.25118576 -0.11583527 -0.11530636
  4   H            X  0.17656618 -0.18088016 -0.31840255  0.27321083  0.39537755
                   Y -0.08783366 -0.23980043  0.37951032 -0.08491013 -0.28007133
                   Z -0.15334303 -0.33070002  0.12137360  0.29094379  0.11530634
  5   H            X  0.17641643  0.24592838 -0.29651838  0.24563806 -0.39537758
                   Y -0.08768953  0.18700847  0.40139458 -0.11248295  0.28007136
                   Z -0.15306601 -0.35120607 -0.15633773 -0.24689131  0.11530633

 TRANS. SAYVETZ    X  2.83177696  0.00000258 -0.00001018  0.00002724  0.00000005
                   Y -1.40711866 -0.00000096  0.00002751  0.00000736 -0.00000010
                   Z -2.45608485 -0.00002796 -0.00000123  0.00000122  0.00000022
               TOTAL  4.00391015  0.00002809  0.00002936  0.00002825  0.00000025

   ROT. SAYVETZ    X -0.00008975 -0.00000029  0.00000005 -0.00000146 -0.00000000
                   Y -0.00142249 -0.00000006  0.00000285  0.00000132  0.00000000
                   Z  0.00071102  0.00000087  0.00000011 -0.00000024  0.00000000
               TOTAL  0.00159282  0.00000092  0.00000285  0.00000199  0.00000000

                           11          12          13          14          15
       FREQUENCY:      1530.79     3025.21     3146.97     3146.97     3146.97  
        SYMMETRY:         E           A1          T2          T2          T2  
    REDUCED MASS:      1.00783     1.00782     1.10163     1.10163     1.10163
    IR INTENSITY:      0.00000     0.00000     0.49943     0.49945     0.49945

  1   C            X  0.00000000 -0.00000000  0.01132275 -0.04450607 -0.07508588
                   Y  0.00000007  0.00000000 -0.00265516  0.07550430 -0.04515458
                   Z -0.00000008  0.00000001 -0.08724466 -0.00807396 -0.00837060
  2   H            X  0.09512710  0.28755254 -0.31929110  0.34668806  0.05347209
                   Y -0.29484363 -0.28755247  0.32102499 -0.34048701 -0.07752550
                   Z  0.38997074 -0.28755246  0.30410319 -0.35720642 -0.07016706
  3   H            X -0.09512723 -0.28755239  0.23501310  0.39798557  0.10665402
                   Y  0.29484353  0.28755233 -0.23327915 -0.39178451 -0.13070742
                   Z  0.38997062 -0.28755230  0.21529506  0.40527363  0.11999998
  4   H            X -0.09512695 -0.28755225 -0.30242194 -0.13302465  0.34035898
                   Y -0.29484347 -0.28755218 -0.30521814 -0.10901717  0.34634656
                   Z -0.38997063  0.28755220  0.28723400  0.12250628 -0.35705392
  5   H            X  0.09512708  0.28755212  0.25188280 -0.08172732  0.39354108
                   Y  0.29484338  0.28755206  0.24908655 -0.05771985  0.39952864
                   Z -0.38997050  0.28755206  0.23216474 -0.07443929  0.40688703

 TRANS. SAYVETZ    X  0.00000002  0.00000002  0.00000098 -0.00000448 -0.00000861
                   Y  0.00000064 -0.00000022 -0.00000025  0.00000828 -0.00000558
                   Z -0.00000075 -0.00000042 -0.00001037 -0.00000106 -0.00000121
               TOTAL  0.00000098  0.00000048  0.00001042  0.00000948  0.00001033

   ROT. SAYVETZ    X  0.00000000 -0.00000000  0.00000004 -0.00000003 -0.00000016
                   Y -0.00000000  0.00000000 -0.00000001  0.00000002  0.00000005
                   Z -0.00000000  0.00000000 -0.00000013 -0.00000003 -0.00000003
               TOTAL  0.00000000  0.00000000  0.00000014  0.00000005  0.00000017

 REFERENCE ON SAYVETZ CONDITIONS - A. SAYVETZ, J.CHEM.PHYS., 7, 383-389(1939).

 NOTE - THE MODES J,K ARE ORTHONORMALIZED ACCORDING TO
 SUM ON I   M(I) * (X(I,J)*X(I,K) + Y(I,J)*Y(I,K) + Z(I,J)*Z(I,K)) = DELTA(J,K)

  MODE FREQ(CM**-1)  SYMMETRY  RED. MASS  IR INTENS.
     1      27.001    T1       1.007825    0.000000
     2      26.986    T1       1.007825    0.000000
     3      26.972    T1       1.007825    0.000000
     4       0.617    T2       3.206290    0.000000
     5       0.013    T2       3.206290    0.000000
     6       0.617    T2       3.206295    0.000000
     7    1309.630    T2       1.179000    0.282741
     8    1309.631    T2       1.179000    0.282742
     9    1309.631    T2       1.179000    0.282750
    10    1530.793    E        1.007825    0.000000
    11    1530.794    E        1.007825    0.000000
    12    3025.206    A1       1.007825    0.000000
    13    3146.965    T2       1.101635    0.499431
    14    3146.966    T2       1.101635    0.499449
    15    3146.966    T2       1.101635    0.499451

     -------------------------------
     THERMOCHEMISTRY AT T=  298.15 K
     -------------------------------

 USING IDEAL GAS, RIGID ROTOR, HARMONIC NORMAL MODE APPROXIMATIONS.
 P=  1.01325E+05 PASCAL.
 ALL FREQUENCIES ARE SCALED BY   1.00000
 THE MOMENTS OF INERTIA ARE (IN AMU*BOHR**2)
             11.61667            11.61667            11.61667
 THE ROTATIONAL SYMMETRY NUMBER IS 12.0
 THE ROTATIONAL CONSTANTS ARE (IN GHZ)
    155.21565   155.21565   155.21565
      7 -     15 VIBRATIONAL MODES ARE USED IN THERMOCHEMISTRY.
 THE HARMONIC ZERO POINT ENERGY IS (SCALED BY   1.000)
        0.044325 HARTREE/MOLECULE     9728.290688 CM**-1/MOLECULE 
       27.814607 KCAL/MOL              116.376315 KJ/MOL

               Q               LN Q
 ELEC.     1.00000E+00       0.000000
 TRANS.    2.52294E+06      14.740935
 ROT.      3.73493E+01       3.620314
 VIB.      1.00667E+00       0.006645
 TOT.      9.48583E+07      18.367894

              E         H         G         CV        CP        S
           KJ/MOL    KJ/MOL    KJ/MOL   J/MOL-K   J/MOL-K   J/MOL-K
 ELEC.      0.000     0.000     0.000     0.000     0.000     0.000
 TRANS.     3.718     6.197   -36.542    12.472    20.786   143.348
 ROT.       3.718     3.718    -8.975    12.472    12.472    42.572
 VIB.     116.484   116.484   116.360     2.365     2.365     0.416
 TOTAL    123.921   126.400    70.843    27.308    35.622   186.336
 VIB. THERMAL CORRECTION E(T)-E(0) = H(T)-H(0) =       107.494 J/MOL

              E         H         G         CV        CP        S
         KCAL/MOL  KCAL/MOL  KCAL/MOL CAL/MOL-K CAL/MOL-K CAL/MOL-K
 ELEC.      0.000     0.000     0.000     0.000     0.000     0.000
 TRANS.     0.889     1.481    -8.734     2.981     4.968    34.261
 ROT.       0.889     0.889    -2.145     2.981     2.981    10.175
 VIB.      27.840    27.840    27.811     0.565     0.565     0.099
 TOTAL     29.618    30.210    16.932     6.527     8.514    44.535
 VIB. THERMAL CORRECTION E(T)-E(0) = H(T)-H(0) =        25.692 CAL/MOL
 ......END OF NORMAL COORDINATE ANALYSIS......
 STEP CPU TIME =     0.00 TOTAL CPU TIME =         37.1 (      0.6 MIN)
 TOTAL WALL CLOCK TIME=         38.2 SECONDS, CPU UTILIZATION IS    97.25%
               1060453  WORDS OF DYNAMIC MEMORY USED
 EXECUTION OF GAMESS TERMINATED NORMALLY Thu Aug 17 06:03:28 2023
 DDI: 263640 bytes (0.3 MB / 0 MWords) used by master data server.

 ----------------------------------------
 CPU timing information for all processes
 ========================================
 0: 36.494 + 0.622 = 37.116
 ----------------------------------------
 ddikick.x: exited gracefully.
----- accounting info -----
Files used on the master node chemcompute-node-0.novalocal were:
-rw-r--r--. 1 chemcomp chemcomp      661 Aug 17 06:02 /scratch/264525/620616.F05
-rw-rw-r--. 1 chemcomp chemcomp 70451200 Aug 17 06:03 /scratch/264525/620616.F10
-rw-rw-r--. 1 chemcomp chemcomp  2720872 Aug 17 06:03 /scratch/264525/620616.F22
Thu Aug 17 06:03:31 UTC 2023
0.082u 0.028s 0:41.45 0.2%	0+0k 8+208io 0pf+0w
Finishing Up...
Looking for IR data...
Looking for Raman data...
vibramans not found
Looking for thermodynamics data...
Looking for UV-Vis data...
chemcompute.org
{'UTCtimestamp': '2023-08-17T06:03:32.453592', 'cluster': 'jetstream2', 'clusterJobNumber': '264525', 'status': 'COMPLETE', 'nodeList': 'chemcompute-node-0'}
264525
